BEGIN_CFG
 Size
    53
 Supercell
         9.524580     -0.000014     -0.000020
         0.000017      9.524575     -0.000006
         0.000022      0.000004      9.524586
 AtomData:  id type       cartes_x      cartes_y      cartes_z           fx          fy          fz
             1    0       9.524583     -0.000011      3.219364     0.000021   -0.000002    0.000021
             2    0       9.524607      9.524561      6.305179     0.000021    0.000019   -0.000027
             3    0       9.524606      3.219371      9.524561     0.000007    0.000019    0.000013
             4    0       0.000022      3.175781      3.175782    -0.000032   -0.000018   -0.000026
             5    0       0.000029      3.175786      6.348805    -0.000034   -0.000002    0.000020
             6    0       9.524606      6.305190      9.524559     0.000031   -0.000024    0.000017
             7    0       0.000023      6.348802      3.175779    -0.000017    0.000015    0.000007
             8    0       0.000031      6.348800      6.348797    -0.000022    0.000003    0.000013
             9    0       3.219418      9.524573      9.524571     0.000049    0.000023    0.000017
            10    0       3.175786      0.000004      3.175776    -0.000009   -0.000020   -0.000020
            11    0       3.175797      0.000002      6.348800     0.000006   -0.000008    0.000017
            12    0       3.175784      3.175775     -0.000003    -0.000010   -0.000023   -0.000021
            13    0       3.167851      3.167835      3.167832    -0.000000    0.000012    0.000010
            14    0       3.167863      3.167841      6.356742    -0.000009   -0.000005   -0.000031
            15    0       3.175792      6.348796     -0.000004     0.000015    0.000018   -0.000021
            16    0       3.167859      6.356741      3.167831     0.000003   -0.000029    0.000010
            17    0       3.167873      6.356737      6.356732    -0.000018   -0.000010   -0.000006
            18    0       6.305240      9.524569      9.524565    -0.000046    0.000023    0.000019
            19    0       6.348807      0.000001      3.175772     0.000019   -0.000030    0.000008
            20    0       6.348812     -0.000001      6.348790    -0.000005   -0.000015   -0.000014
            21    0       6.348807      3.175771     -0.000009     0.000014    0.000013   -0.000021
            22    0       6.356756      3.167834      3.167831    -0.000015    0.000005   -0.000004
            23    0       6.356759      3.167841      6.356729    -0.000006   -0.000015   -0.000014
            24    0       6.348810      6.348786     -0.000010    -0.000010   -0.000003   -0.000021
            25    0       6.356757      6.356727      3.167831    -0.000004   -0.000000   -0.000010
            26    0       6.356758      6.356722      6.356718     0.000021    0.000023    0.000024
            27    0       1.552354      1.552347      1.552345     0.000033    0.000036    0.000035
            28    0       1.593946      1.593930      4.762294    -0.000032   -0.000020   -0.000020
            29    0       1.552372      1.552351      7.972226     0.000028    0.000044    0.000014
            30    0       1.593942      4.762290      1.593924    -0.000030   -0.000013   -0.000012
            31    0       1.590223      4.762291      4.762286    -0.000048    0.000003    0.000011
            32    0       1.593963      4.762295      7.930656    -0.000059   -0.000017   -0.000025
            33    0       1.552364      7.972224      1.552341     0.000047   -0.000002    0.000049
            34    0       1.593960      7.930654      4.762286    -0.000049   -0.000024   -0.000005
            35    0       1.552385      7.972219      7.972217     0.000030    0.000024    0.000026
            36    0       4.762298      1.593925      1.593922    -0.000013   -0.000036   -0.000044
            37    0       4.762302      1.590198      4.762284     0.000017   -0.000050    0.000010
            38    0       4.762313      1.593932      7.930650    -0.000016   -0.000050   -0.000013
            39    0       4.762300      4.762280      1.590191     0.000021    0.000027   -0.000050
            40    0       4.762305      4.762281      4.762276     0.000014    0.000014    0.000018
            41    0       4.762316      4.762285      7.934387     0.000015    0.000018   -0.000026
            42    0       4.762310      7.930647      1.593923    -0.000011   -0.000015   -0.000055
            43    0       4.762314      7.934385      4.762276     0.000017   -0.000020    0.000021
            44    0       4.762325      7.930642      7.930641    -0.000016    0.000018    0.000013
            45    0       7.972230      1.552342      1.552335     0.000026    0.000031    0.000028
            46    0       7.930671      1.593928      4.762280    -0.000035   -0.000054   -0.000014
            47    0       7.972241      1.552345      7.972209     0.000034    0.000047    0.000023
            48    0       7.930669      4.762278      1.593917    -0.000028   -0.000002   -0.000044
            49    0       7.934416      4.762278      4.762272    -0.000046    0.000014    0.000016
            50    0       7.930677      4.762282      7.930636     0.000004   -0.000004    0.000006
            51    0       7.972234      7.972208      1.552333     0.000049    0.000019    0.000040
            52    0       7.930674      7.930638      4.762272     0.000007    0.000008    0.000001
            53    0       7.972242      7.972203      7.972197     0.000070    0.000037    0.000038
 Energy
       -576.016870164368
 PlusStress:  xx          yy          zz          yz          xz          xy
         0.00076     0.00108     0.00034     0.00014    -0.00017    -0.00020
 Feature   EFS_by	MultiMTP3
 Feature   from	relaxation_OK
 Feature   mindist	2.546341
 Feature   mindists	{(0,0):2.731624}
END_CFG

BEGIN_CFG
 Size
    54
 Supercell
        10.093220     -0.639166     -0.180427
        -0.584254     10.590279      0.149025
        -0.199863     -0.001768      9.767005
 AtomData:  id type       cartes_x      cartes_y      cartes_z           fx          fy          fz
             1    0       0.123463     10.040288      7.800735     0.000003   -0.000014    0.000008
             2    0       0.020060      3.454909      0.912844     0.000000    0.000000    0.000022
             3    0       3.883840      7.961067      1.997052     0.000018   -0.000003   -0.000000
             4    0       3.534050      6.695101      9.072429     0.000014   -0.000005   -0.000011
             5    0       8.738600      4.378932      8.211889    -0.000004   -0.000007    0.000008
             6    0       8.591465      3.093943      5.574897     0.000005   -0.000020   -0.000010
             7    0       1.046410      0.655834      0.547027     0.000011    0.000015   -0.000002
             8    0       5.369413      2.402103      2.867829     0.000019    0.000018   -0.000013
             9    0       5.316914      7.663977      6.910888     0.000004   -0.000014    0.000020
            10    0       8.775373      9.588175      2.640442     0.000011   -0.000001    0.000024
            11    0       6.659587      0.834991      5.059065    -0.000011   -0.000007    0.000025
            12    0       2.978345      2.900043      1.053928    -0.000012   -0.000000    0.000002
            13    0       6.330880      4.852111      6.407989    -0.000023    0.000005   -0.000006
            14    0       1.193546      1.940824      3.184020    -0.000003    0.000019   -0.000001
            15    0       0.912797      8.516610      1.979792     0.000003   -0.000007   -0.000011
            16    0       2.113301      6.971120      4.146321    -0.000003    0.000001   -0.000003
            17    0       2.376417      8.263290      6.826929     0.000001   -0.000016    0.000009
            18    0       1.434488      3.219188      5.863246     0.000000   -0.000016    0.000010
            19    0       9.592437      0.330454      5.160608     0.000001    0.000005   -0.000005
            20    0       0.152543      9.009183      5.150928    -0.000032   -0.000006   -0.000014
            21    0       4.894144      5.127091      1.559016    -0.000004    0.000006   -0.000012
            22    0       8.182702      0.575373      0.218739     0.000005   -0.000015    0.000003
            23    0       1.950126      5.717196      1.449544     0.000003    0.000003   -0.000011
            24    0       4.415592      2.632656      5.891097     0.000020    0.000005   -0.000014
            25    0       6.824339      7.361754      2.081011     0.000004    0.000007    0.000009
            26    0       3.125427      4.199774      3.699852    -0.000004    0.000003   -0.000014
            27    0       4.555350      3.882255      8.632524    -0.000016    0.000008   -0.000016
            28    0       1.602310      4.459395      8.540178     0.000000   -0.000003   -0.000003
            29    0       7.248916      4.570004      3.363537     0.000006    0.000009   -0.000020
            30    0       5.229664      1.152509      0.126402    -0.000008   -0.000009   -0.000020
            31    0       0.584384      7.273383      8.967830     0.000000    0.000006   -0.000002
            32    0       2.536091      0.464758      5.395383     0.000016    0.000010   -0.000004
            33    0       8.350524      1.815581      2.895669    -0.000005   -0.000013    0.000004
            34    0       2.637068      1.667867      8.135403    -0.000009   -0.000005   -0.000010
            35    0       7.087458      8.653923      4.761619    -0.000007    0.000004    0.000016
            36    0       0.425383      6.036869      6.267498    -0.000005    0.000002   -0.000009
            37    0       4.890866     -0.092326      7.199903     0.000009    0.000000    0.000011
            38    0       8.416509      8.349895      9.707117    -0.000004   -0.000013   -0.000003
            39    0       4.127365      9.194998      4.683258     0.000004   -0.000002   -0.000012
            40    0       2.517223      9.510742      9.527412    -0.000001    0.000002   -0.000000
            41    0       9.077294      5.584759      1.107204    -0.000004   -0.000003    0.000017
            42    0       7.147944      3.366898      0.623519     0.000005    0.000007    0.000003
            43    0       6.417554     -0.398619      2.375456    -0.000001    0.000027    0.000001
            44    0       3.454128      0.182651      2.350931     0.000025    0.000013   -0.000004
            45    0       6.806670      2.134723      7.704992    -0.000020   -0.000016   -0.000007
            46    0       7.250631      9.907846      7.458400    -0.000005    0.000011   -0.000008
            47    0       5.073394      6.430048      4.224684    -0.000015   -0.000011    0.000017
            48    0       9.764951      1.579859      7.846067     0.000018   -0.000017    0.000017
            49    0       8.287958      7.108436      6.928150     0.000015   -0.000008    0.000009
            50    0       6.483670      6.112532      9.147536    -0.000007    0.000020   -0.000009
            51    0       3.367458      5.433380      6.383461    -0.000007    0.000001    0.000015
            52    0       9.048215      6.615857      3.757015     0.000005    0.000026   -0.000003
            53    0       5.466841      8.928174      9.602518    -0.000003    0.000012    0.000010
            54    0       0.192576      4.704312      3.598307    -0.000011   -0.000012   -0.000001
 Energy
       -587.598011306868
 PlusStress:  xx          yy          zz          yz          xz          xy
         0.00013     0.00006    -0.00015    -0.00007    -0.00013    -0.00010
 Feature   EFS_by	MultiMTP3
 Feature   from	relaxation_OK
 Feature   mindist	2.092971
 Feature   mindists	{(0,0):2.446170}
END_CFG

BEGIN_CFG
 Size
    53
 Supercell
         9.524585      0.000282      0.000384
        -0.000284      9.524583      0.000033
        -0.000387     -0.000035      9.524580
 AtomData:  id type       cartes_x      cartes_y      cartes_z           fx          fy          fz
             1    0       1.593811      1.593969      1.707304     0.000024    0.000008   -0.000002
             2    0       7.971794      7.972448      4.917520    -0.000001   -0.000027    0.000016
             3    0       9.524485      3.176063      0.121121     0.000010    0.000001    0.000005
             4    0      -0.000227      3.175769      3.293759    -0.000002   -0.000016   -0.000001
             5    0       9.524226      3.219640      6.469919    -0.000000   -0.000000    0.000006
             6    0       9.524387      6.349081      0.121135     0.000045    0.000011   -0.000023
             7    0      -0.000320      6.348793      3.293772    -0.000005   -0.000011   -0.000008
             8    0       1.551923      7.972259      4.917264    -0.000026   -0.000022   -0.000020
             9    0       1.551983      1.552374      8.021946     0.000008   -0.000014    0.000031
            10    0       3.175651      0.000083      3.293874    -0.000022   -0.000012   -0.000027
            11    0       3.219122      0.000073      6.469659     0.000029   -0.000013    0.000000
            12    0       3.167744      3.167936      0.112927    -0.000010    0.000016    0.000003
            13    0       3.167617      3.167924      3.301820    -0.000016   -0.000014    0.000021
            14    0       3.175427      3.175852      6.469665    -0.000007   -0.000011    0.000008
            15    0       3.167649      6.356831      0.112940    -0.000009    0.000000   -0.000009
            16    0       3.167521      6.356826      3.301834    -0.000015   -0.000011   -0.000003
            17    0       3.175330      6.348872      6.469678     0.000008   -0.000001   -0.000004
            18    0       6.348516      9.524770      0.121015     0.000010   -0.000002    0.000013
            19    0       6.348390      9.524757      3.294035    -0.000027    0.000005   -0.000010
            20    0       6.304655      9.524745      6.469815    -0.000015   -0.000004   -0.000001
            21    0       6.356643      3.168032      0.113061     0.000013    0.000000   -0.000029
            22    0       6.356516      3.168016      3.301953     0.000001    0.000015   -0.000012
            23    0       6.348445      3.175944      6.469789     0.000016    0.000009    0.000026
            24    0       6.356550      6.356925      0.113068    -0.000013    0.000010    0.000014
            25    0       6.356419      6.356920      3.301963     0.000006   -0.000030    0.000004
            26    0       6.348350      6.348964      6.469805     0.000007    0.000014   -0.000017
            27    0       3.175779      0.000098      0.120853    -0.000025   -0.000024    0.000006
            28    0       1.552117      1.552384      4.917239    -0.000044   -0.000001   -0.000016
            29    0       9.524291      9.524862      0.164739     0.000033    0.000026    0.000019
            30    0       1.589983      4.762333      1.707322    -0.000012   -0.000006   -0.000044
            31    0       1.593593      4.762320      4.875678    -0.000010    0.000005   -0.000004
            32    0       1.593457      4.762308      8.063534     0.000029    0.000004    0.000029
            33    0       1.593624      7.930697      1.707323     0.000015   -0.000013    0.000032
            34    0      -0.000413      9.524571      3.250173     0.000019    0.000004    0.000047
            35    0       1.551793      7.972241      8.021974     0.000001    0.000004   -0.000010
            36    0       4.762178      1.590330      1.707433    -0.000000   -0.000028    0.000011
            37    0       4.762047      1.594051      4.875792     0.000010    0.000002    0.000028
            38    0       4.761921      1.594042      8.063656    -0.000014    0.000000   -0.000024
            39    0       4.762079      4.762427      1.707449     0.000035   -0.000005   -0.000026
            40    0       4.761950      4.762412      4.879537     0.000029    0.000031    0.000031
            41    0       4.761824      4.762402      8.059930    -0.000000   -0.000006   -0.000012
            42    0       4.761987      7.934523      1.707454     0.000008    0.000023    0.000012
            43    0       4.761859      7.930776      4.875817     0.000002    0.000011    0.000019
            44    0       4.761728      7.930761      8.063681     0.000012    0.000017   -0.000052
            45    0       7.930544      1.594155      1.707562    -0.000035    0.000029   -0.000005
            46    0       7.971987      1.552568      4.917499    -0.000009    0.000033   -0.000008
            47    0       7.971854      1.552563      8.022208     0.000017    0.000002    0.000005
            48    0       7.934182      4.762520      1.707578    -0.000008   -0.000004   -0.000005
            49    0       7.930316      4.762509      4.875933    -0.000004   -0.000003   -0.000001
            50    0       7.930187      4.762496      8.063791    -0.000020   -0.000016   -0.000005
            51    0       7.930355      7.930882      1.707585    -0.000049   -0.000008   -0.000015
            52    0       9.524135      6.305456      6.469931     0.000006    0.000020    0.000004
            53    0       7.971665      7.972431      8.022229     0.000003    0.000002    0.000007
 Energy
       -576.016870169966
 PlusStress:  xx          yy          zz          yz          xz          xy
        -0.00015     0.00004     0.00025     0.00018     0.00012     0.00017
 Feature   EFS_by	MultiMTP3
 Feature   from	relaxation_OK
 Feature   mindist	2.097031
 Feature   mindists	{(0,0):2.731622}
END_CFG

BEGIN_CFG
 Size
    53
 Supercell
         9.524593     -0.000042      0.000019
         0.000040      9.524585     -0.000126
        -0.000018      0.000126      9.524572
 AtomData:  id type       cartes_x      cartes_y      cartes_z           fx          fy          fz
             1    0      -0.000005      0.000043      3.219387    -0.000001   -0.000004   -0.000045
             2    0       9.524579      0.000044      6.305214     0.000007   -0.000006    0.000008
             3    0      -0.000005      3.219515      9.524529     0.000006   -0.000034    0.000009
             4    0       9.524599      3.175782      3.175755    -0.000002    0.000008    0.000004
             5    0       9.524592      3.175826      6.348775     0.000006   -0.000007   -0.000013
             6    0       9.524617      6.305162     -0.000063     0.000009   -0.000015    0.000005
             7    0       9.524612      6.348805      3.175715     0.000006   -0.000014   -0.000018
             8    0       9.524605      6.348850      6.348734     0.000016   -0.000013   -0.000009
             9    0       3.219387     -0.000010      0.000011     0.000018   -0.000026   -0.000022
            10    0       3.175817      9.524612      3.175659     0.000008    0.000014   -0.000002
            11    0       3.175771      0.000072      6.348804     0.000001    0.000003   -0.000008
            12    0       3.175778      3.175894      9.524535     0.000015    0.000006    0.000011
            13    0       3.167852      3.167874      3.167803     0.000011   -0.000014    0.000012
            14    0       3.167847      3.167915      6.356697    -0.000002   -0.000002    0.000008
            15    0       3.175810      6.348792     -0.000077     0.000007   -0.000013    0.000009
            16    0       3.167865      6.356768      3.167762     0.000014    0.000007    0.000001
            17    0       3.167858      6.356815      6.356659     0.000003   -0.000017   -0.000020
            18    0       6.305206     -0.000026      0.000016    -0.000001   -0.000004   -0.000012
            19    0       6.348845      9.524597      3.175664    -0.000019    0.000018    0.000009
            20    0       6.348836      9.524641      6.348682    -0.000007    0.000010    0.000003
            21    0       6.348807      3.175878      9.524541    -0.000033    0.000019    0.000022
            22    0       6.356755      3.167858      3.167809    -0.000006   -0.000010    0.000005
            23    0       6.356746      3.167899      6.356703     0.000007    0.000006    0.000008
            24    0       6.348835      6.348778     -0.000071    -0.000006   -0.000013    0.000011
            25    0       6.356767      6.356754      3.167767    -0.000004    0.000019    0.000010
            26    0       6.356758      6.356801      6.356665     0.000009   -0.000021   -0.000020
            27    0       1.552363      1.552370      1.552338    -0.000030    0.000012    0.000015
            28    0       1.593929      1.593989      4.762270    -0.000003   -0.000010    0.000006
            29    0       1.552349      1.552455      7.972203    -0.000012    0.000015   -0.000018
            30    0       1.593949      4.762307      1.593869    -0.000018    0.000015   -0.000004
            31    0       1.590203      4.762349      4.762228     0.000012    0.000008    0.000008
            32    0       1.593936      4.762393      7.930585    -0.000002   -0.000004    0.000002
            33    0       1.552388      7.972243      1.552253    -0.000003   -0.000005    0.000016
            34    0       1.593956      7.930710      4.762188    -0.000009    0.000009   -0.000004
            35    0       1.552374      7.972335      7.972124     0.000002   -0.000033   -0.000047
            36    0       4.762301      1.593931      1.593917    -0.000006    0.000005    0.000009
            37    0       4.762293      1.590235      4.762273     0.000002    0.000010    0.000008
            38    0       4.762289      1.594016      7.930632    -0.000015   -0.000015    0.000010
            39    0       4.762313      4.762291      1.590136     0.000003    0.000012    0.000007
            40    0       4.762307      4.762334      4.762232    -0.000014    0.000022    0.000013
            41    0       4.762299      4.762378      7.934326     0.000011   -0.000007    0.000020
            42    0       4.762328      7.930654      1.593835    -0.000012    0.000011   -0.000012
            43    0       4.762318      7.934434      4.762191     0.000018   -0.000005   -0.000004
            44    0       4.762314      7.930740      7.930550    -0.000003    0.000024    0.000017
            45    0       7.972244      1.552340      1.552350    -0.000023    0.000013    0.000007
            46    0       7.930659      1.593958      4.762281    -0.000002    0.000012    0.000010
            47    0       7.972227      1.552428      7.972216    -0.000007   -0.000003   -0.000015
            48    0       7.930677      4.762278      1.593880     0.000015    0.000017    0.000009
            49    0       7.934405      4.762323      4.762240     0.000026   -0.000007    0.000005
            50    0       7.930664      4.762364      7.930597     0.000009    0.000006    0.000006
            51    0       7.972268      7.972216      1.552267    -0.000014   -0.000007   -0.000000
            52    0       7.930684      7.930682      4.762200     0.000008    0.000015   -0.000011
            53    0       7.972252      7.972303      7.972133     0.000006   -0.000006   -0.000018
 Energy
       -576.016870170378
 PlusStress:  xx          yy          zz          yz          xz          xy
        -0.00071    -0.00017     0.00071    -0.00001    -0.00003     0.00012
 Feature   EFS_by	MultiMTP3
 Feature   from	relaxation_OK
 Feature   mindist	2.488084
 Feature   mindists	{(0,0):2.731624}
END_CFG

BEGIN_CFG
 Size
    54
 Supercell
         9.524859     -0.003883     -0.000012
         0.003885      9.524859     -0.002358
         0.000012      0.002358      9.524863
 AtomData:  id type       cartes_x      cartes_y      cartes_z           fx          fy          fz
             1    0       9.524858     -0.003880     -0.000010     0.000003   -0.000015   -0.000004
             2    0       9.528746      9.521762      3.172586     0.000032    0.000017    0.000002
             3    0       0.003894      9.526431      6.347552     0.000001    0.000004   -0.000002
             4    0       0.001296      3.174954     -0.000785    -0.000008    0.000002    0.000020
             5    0       0.001300      3.175741      3.174170    -0.000003   -0.000010   -0.000000
             6    0       0.001305      3.176526      6.349125    -0.000008   -0.000005   -0.000020
             7    0       0.002592      6.349907     -0.001571    -0.000004   -0.000002    0.000023
             8    0       0.002596      6.350691      3.173383    -0.000001    0.000010   -0.000003
             9    0       0.002601      6.351479      6.348339    -0.000006   -0.000003   -0.000014
            10    0       3.174953     -0.001292     -0.000003     0.000009   -0.000007    0.000005
            11    0       3.174958     -0.000507      3.174950    -0.000001   -0.000002    0.000016
            12    0       3.178846      9.525135      6.347548     0.000007    0.000029   -0.000008
            13    0       3.176249      3.173659     -0.000788     0.000012   -0.000000   -0.000005
            14    0       3.176254      3.174444      3.174166    -0.000003    0.000001   -0.000005
            15    0       3.176257      3.175231      6.349120     0.000003   -0.000006    0.000004
            16    0       3.177544      6.348613     -0.001575    -0.000005    0.000007    0.000006
            17    0       3.177548      6.349398      3.173377    -0.000001    0.000006    0.000024
            18    0       3.177551      6.350186      6.348335     0.000005   -0.000017   -0.000015
            19    0       6.349907     -0.002587     -0.000006    -0.000003    0.000006   -0.000013
            20    0       6.349912     -0.001801      3.174948    -0.000019   -0.000018    0.000002
            21    0       6.349915     -0.001016      6.349902    -0.000001   -0.000015   -0.000009
            22    0       6.351202      3.172368     -0.000794    -0.000004   -0.000020    0.000003
            23    0       6.351205      3.173152      3.174164     0.000012    0.000008   -0.000021
            24    0       6.351210      3.173938      6.349115    -0.000008    0.000005    0.000014
            25    0       6.352497      6.347320     -0.001579     0.000001   -0.000012    0.000000
            26    0       6.352500      6.348105      3.173376     0.000004   -0.000000   -0.000004
            27    0       6.352505      6.348890      6.348330    -0.000005    0.000007    0.000007
            28    0       1.588127      1.587223      1.587084    -0.000010    0.000004    0.000007
            29    0       1.588131      1.588008      4.762039    -0.000005    0.000001   -0.000011
            30    0       1.588134      1.588795      7.936994     0.000013   -0.000003   -0.000021
            31    0       1.589424      4.762175      1.586298    -0.000024    0.000008   -0.000010
            32    0       1.589427      4.762960      4.761251    -0.000004    0.000019    0.000009
            33    0       1.589431      4.763747      7.936207    -0.000001    0.000009   -0.000004
            34    0       1.590717      7.937131      1.585512    -0.000004   -0.000009   -0.000002
            35    0       1.590722      7.937914      4.760465    -0.000003    0.000008   -0.000002
            36    0       1.590726      7.938702      7.935420    -0.000011   -0.000000    0.000011
            37    0       4.763081      1.585929      1.587080    -0.000004    0.000001   -0.000012
            38    0       4.763085      1.586715      4.762034    -0.000017   -0.000012    0.000009
            39    0       4.763088      1.587500      7.936987     0.000000    0.000011    0.000007
            40    0       4.764375      4.760882      1.586293     0.000006   -0.000007    0.000001
            41    0       4.764378      4.761668      4.761248    -0.000004    0.000008    0.000006
            42    0       4.764382      4.762455      7.936202     0.000013   -0.000007   -0.000007
            43    0       4.765671      7.935836      1.585506    -0.000004    0.000000    0.000009
            44    0       4.765672      7.936619      4.760462     0.000015    0.000018   -0.000002
            45    0       4.765677      7.937409      7.935416     0.000012   -0.000016    0.000002
            46    0       7.938031      1.584635      1.587077     0.000013    0.000016   -0.000016
            47    0       7.938035      1.585420      4.762030     0.000026    0.000009    0.000002
            48    0       7.938041      1.586207      7.936982    -0.000003   -0.000005    0.000017
            49    0       7.939327      4.759588      1.586290     0.000006   -0.000005   -0.000004
            50    0       7.939332      4.760375      4.761244     0.000010   -0.000014   -0.000004
            51    0       7.939338      4.761161      7.936198    -0.000017   -0.000005    0.000002
            52    0       7.940622      7.934542      1.585504     0.000014   -0.000020   -0.000004
            53    0       7.940628      7.935324      4.760456    -0.000013    0.000011    0.000020
            54    0       7.940633      7.936112      7.935412    -0.000014    0.000010   -0.000006
 Energy
       -588.176879086807
 PlusStress:  xx          yy          zz          yz          xz          xy
         0.00020     0.00013    -0.00005    -0.00003     0.00009    -0.00017
 Feature   EFS_by	MultiMTP3
 Feature   from	relaxation_OK
 Feature   mindist	2.277992
 Feature   mindists	{(0,0):2.749588}
END_CFG

BEGIN_CFG
 Size
    54
 Supercell
         9.524875     -0.000063      0.000023
         0.000064      9.524860     -0.000096
        -0.000024      0.000094      9.524851
 AtomData:  id type       cartes_x      cartes_y      cartes_z           fx          fy          fz