BEGIN_CFG
 Size
    8
 Supercell
         3.956132      0.000000     -0.000000
         0.000000      3.956134     -0.000001
        -0.000000     -0.000001      3.956133
 AtomData:  id type       cartes_x      cartes_y      cartes_z           fx          fy          fz
             1    0       0.989030      0.989030      0.989030    -0.000006   -0.000002   -0.000016
             2    0       2.967100      2.967100      0.989030     0.000018   -0.000002   -0.000008
             3    0       2.967100      0.989030      2.967100     0.000008    0.000020    0.000014
             4    0       0.989030      2.967100      2.967100     0.000012   -0.000012    0.000018
             5    0      -0.000000     -0.000000     -0.000000     0.000032    0.000019   -0.000001
             6    0       1.978070      1.978070     -0.000000    -0.000041   -0.000017   -0.000024
             7    0       1.978070     -0.000000      1.978070    -0.000044    0.000018    0.000010
             8    0       0.000000      1.978070      1.978070     0.000021   -0.000024    0.000007
 Energy
        -68.006828600000
 PlusStress:  xx          yy          zz          yz          xz          xy
       -28.62534   -28.62548   -28.62536     0.00006     0.00002     0.00000
 Feature   EFS_by	VASP
 Feature   mindist	1.713050
END_CFG

BEGIN_CFG
 Size
    8
 Supercell
         3.448017      0.000000     -0.000001
         0.000000      3.448021     -0.000002
        -0.000001     -0.000002      3.448019
 AtomData:  id type       cartes_x      cartes_y      cartes_z           fx          fy          fz
             1    0       0.862000      0.862000      0.862000     0.000043   -0.000031   -0.000004
             2    0       2.586010      2.586020      0.862000     0.000028    0.000053    0.000034
             3    0       2.586010      0.862000      2.586010     0.000081    0.000004   -0.000036
             4    0       0.862000      2.586010      2.586010     0.000072    0.000041    0.000008
             5    0      -0.000000     -0.000000     -0.000000     0.000008    0.000016    0.000012
             6    0       1.724010      1.724010     -0.000000    -0.000114    0.000002    0.000013
             7    0       1.724010     -0.000000      1.724010    -0.000081   -0.000011   -0.000031
             8    0       0.000000      1.724010      1.724010    -0.000037   -0.000074    0.000005
 Energy
        -72.101737680000
 PlusStress:  xx          yy          zz          yz          xz          xy
        14.32833    14.32807    14.32832     0.00022     0.00008    -0.00002
 Feature   EFS_by	VASP
 Feature   mindist	1.493028
END_CFG

BEGIN_CFG
 Size
    8
 Supercell
         3.617512      0.000000     -0.000001
         0.000000      3.617515     -0.000001
        -0.000001     -0.000001      3.617513
 AtomData:  id type       cartes_x      cartes_y      cartes_z           fx          fy          fz
             1    0       0.904380      0.904380      0.904380     0.000045   -0.000014   -0.000000
             2    0       2.713130      2.713140      0.904380    -0.000017    0.000027    0.000042
             3    0       2.713130      0.904380      2.713130     0.000029   -0.000005   -0.000027
             4    0       0.904380      2.713130      2.713130     0.000071    0.000031   -0.000009
             5    0      -0.000000     -0.000000     -0.000000    -0.000023   -0.000012    0.000008
             6    0       1.808760      1.808760     -0.000000    -0.000036    0.000022    0.000014
             7    0       1.808760     -0.000000      1.808760    -0.000016   -0.000036   -0.000009
             8    0       0.000000      1.808760      1.808760    -0.000053   -0.000013   -0.000017
 Energy
        -72.755128970000
 PlusStress:  xx          yy          zz          yz          xz          xy
        -4.48765    -4.48794    -4.48775     0.00015     0.00008    -0.00001
 Feature   EFS_by	VASP
 Feature   mindist	1.566421
END_CFG

BEGIN_CFG
 Size
    8
 Supercell
         3.577086      0.000000     -0.000001
         0.000000      3.577089     -0.000002
        -0.000001     -0.000002      3.577087
 AtomData:  id type       cartes_x      cartes_y      cartes_z           fx          fy          fz
             1    0       0.894270      0.894270      0.894270     0.000031   -0.000009   -0.000006
             2    0       2.682810      2.682820      0.894270     0.000005    0.000018    0.000015
             3    0       2.682810      0.894270      2.682820     0.000050    0.000004   -0.000026
             4    0       0.894270      2.682820      2.682810     0.000052    0.000024    0.000014
             5    0      -0.000000     -0.000000     -0.000000     0.000001    0.000006    0.000008
             6    0       1.788540      1.788540     -0.000000    -0.000069    0.000014    0.000012
             7    0       1.788540     -0.000000      1.788540    -0.000042   -0.000010   -0.000021
             8    0       0.000000      1.788540      1.788540    -0.000030   -0.000047    0.000005
 Energy
        -72.840540660000
 PlusStress:  xx          yy          zz          yz          xz          xy
        -0.40834    -0.40853    -0.40833     0.00015     0.00007    -0.00002
 Feature   EFS_by	VASP
 Feature   mindist	1.548919
END_CFG

BEGIN_CFG
 Size
    59
 Supercell
        23.744700      0.000000      0.000000
         0.000000     23.433000      0.000000
         0.000000      0.000000     19.637600
 AtomData:  id type       cartes_x      cartes_y      cartes_z           fx          fy          fz
             1    0       0.000000      0.000000      0.000000    -0.216078   -0.937723    0.977811
             2    0      21.558530     22.170820      0.000000    -2.369888   -0.337033   -0.789695
             3    0      21.558530      1.262190      0.000000    -0.685353   -3.113042   -0.189694
             4    0      20.829810      0.000000     19.122320     0.658637    2.250393    3.235817
             5    0       2.186170     22.170820      0.000000     3.874311    5.730046    2.572707
             6    0       2.186170      1.262190      0.000000     2.173016    2.533849   -1.924462
             7    0       4.372340      0.000000      0.000000    -3.061506    1.501419    4.670765
             8    0       3.643620      1.262190     19.122320     0.502270   -4.124454    2.114683
             9    0      21.558530      3.786560      0.000000     4.183229   -1.571050    4.367993
            10    0      23.015980      3.786560     19.122320    -3.455036   -1.338918    2.731194
            11    0       0.000000      2.524370      0.000000     1.239728    3.744789   -1.969063
            12    0       2.186170      3.786560      0.000000    -2.022997   -2.886255    1.531228
            13    0       1.457450      2.524370     19.122320    -0.030567    0.017524    2.768857
            14    0      20.101080     22.170820      2.061140    -2.378019    1.564759   -2.774366
            15    0      20.101080      1.262190      2.061140    -0.991853   -2.928193   -1.082527
            16    0      23.015980     22.170820      4.122280     1.347675    5.258637    0.400950
            17    0      23.015980      1.262190      4.122280    -1.768857    2.566916   -3.825842
            18    0      22.287250      0.000000      3.607000     2.575228    1.715096    1.405501
            19    0      22.287250      0.000000      2.061140    -0.993440    2.261145    0.831027
            20    0      21.558530     22.170820      1.545850    -7.674346   12.096129   -4.806923
            21    0      21.558530      1.262190      1.545850    -0.874445    0.311457   -0.671410
            22    0       1.457450      0.000000      4.122280     3.617751    4.060511   -3.828187
            23    0       0.728720     22.170820      3.607000    -4.623004    9.682822    0.323901
            24    0       0.728720     22.170820      2.061140     4.922096   12.514734    3.143365
            25    0       0.728720      1.262190      3.607000    -1.504227   -2.590225    2.133937
            26    0       0.728720      1.262190      2.061140    -0.200983    0.665313    0.702336
            27    0       0.000000      0.000000      1.545850     0.934928    1.984092   -0.327467
            28    0       2.914890      0.000000      3.607000    -4.903463   -0.065887    0.378103
            29    0       2.914890      0.000000      2.061140     1.423447    2.174995    1.152158
            30    0       2.186170     22.170820      1.545850    -4.091689   10.597878   -3.384173
            31    0       2.186170      1.262190      1.545850     0.316138    0.713302    0.356727
            32    0       4.372340      0.000000      1.545850    -0.704346    0.366985   -5.762950
            33    0      22.287250      2.524370      3.607000     2.086601   -3.569454    0.022693
            34    0      22.287250      2.524370      2.061140    -1.306937    1.417540    1.247674
            35    0      21.558530      3.786560      1.545850     0.935839    0.101016   -6.181676
            36    0       0.728720      3.786560      2.061140     3.192390   -0.536032   -0.686790
            37    0       0.000000      2.524370      1.545850     0.368983    0.708321   -0.113606
            38    0       2.914890      2.524370      2.061140    -2.204053    2.575561   -0.624070
            39    0       2.186170      3.786560      1.545850    -1.969016   -3.702097   -1.542261
            40    0      19.372360      0.000000      0.000000     2.732014   -4.448833    1.474764
            41    0      19.372360      0.000000      1.545850     4.318880    1.941944   -0.065930
            42    0      21.558530     20.048780      0.000000    -0.000023    0.656220    3.223761
            43    0       0.000000     18.786590      0.000000    -0.840459    0.250452    6.014515
            44    0       0.000000     21.310960      0.000000     0.345848    2.280091   -0.414843
            45    0       2.186170     20.048780      0.000000     4.417309    0.309187    0.602857
            46    0       1.457450     21.310960     19.122320    -6.429130   -6.683084   -1.859721
            47    0       4.372340     21.310960      0.000000    -2.081495   -3.016803   -2.216585
            48    0       3.643620     20.048780     19.122320    -0.027078    4.191474    2.252214
            49    0      22.287250     21.310960      3.607000    -2.447223   -3.900869   -3.114823
            50    0      22.287250     21.310960      2.061140     5.480922  -14.845951    6.085122
            51    0      21.558530     20.048780      1.545850     1.875374   -1.174042   -4.511973
            52    0       1.457450     21.310960      4.122280     4.425392  -15.989662    0.934679
            53    0       0.728720     20.048780      3.607000     1.983579    4.113349    1.541531
            54    0       0.728720     20.048780      2.061140     0.994090   -5.843651    0.955388
            55    0       0.000000     18.786590      1.545850    -0.301095    1.627987   -6.541341
            56    0       0.000000     21.310960      1.545850    -6.337695  -10.604112   -4.660422
            57    0       2.914890     21.310960      2.061140     5.027263  -13.207763    3.116776
            58    0       2.186170     20.048780      1.545850    -1.155852    0.852433   -0.650052
            59    0      19.372360     21.310960      0.000000     1.697217    2.076764    1.249816
 Energy
       -404.526136230000
 PlusStress:  xx          yy          zz          yz          xz          xy
       -39.86066    11.04643   -57.74984     0.65266    15.82948    -7.68283
 Feature   EFS_by	VASP
 Feature   mindist	1.239317
END_CFG

BEGIN_CFG
 Size
    60
 Supercell
        23.744700      0.000000      0.000000
         0.000000     23.433000      0.000000
         0.000000      0.000000     19.637600
 AtomData:  id type       cartes_x      cartes_y      cartes_z           fx          fy          fz
             1    0       0.000000      0.000000      0.000000     3.677389    5.071430    3.367927
             2    0      19.372360      0.000000      0.000000     0.253667   -1.931593    2.082023
             3    0      21.558530      1.262180      0.000000    -1.307549   -1.801717    0.608535
             4    0       0.000000      2.524370      0.000000     1.119656    3.516751   -2.176207
             5    0       2.186170      1.262180      0.000000     3.115311    2.445431   -1.762085
             6    0       1.457450      2.524370     19.122320    -0.291133   -0.078788    2.775141
             7    0       4.372340      0.000000      0.000000     2.260228   10.449633    4.735189
             8    0       3.643620      1.262180     19.122320     0.053843    0.205089    2.403023
             9    0      21.558530      3.786560      0.000000     4.670751   -1.502637    4.523064
            10    0      23.015980      3.786560     19.122320    -3.959579   -1.362621    2.704437
            11    0       2.186170      3.786560      0.000000    -1.259720   -3.127120    1.319595
            12    0      20.101080      1.262180      2.061140     0.949510   -0.242995   -0.737424
            13    0      19.372360      0.000000      1.545850    -4.238319    5.785132   -5.241822
            14    0      23.015980      1.262180      4.122280    -0.820016    6.017223   -3.528060
            15    0      22.287250      0.000000      3.607000    -3.605459    8.086215   -2.601659
            16    0      22.287250      0.000000      2.061140     5.615520   12.760426    4.892026
            17    0      22.287250      2.524370      3.607000     2.235596   -4.346292    0.468900
            18    0      22.287250      2.524370      2.061140    -1.524320    1.489855    1.167035
            19    0      21.558530      1.262180      1.545850    -0.515828    1.630461    0.739797
            20    0       0.728720      1.262180      3.607000    -2.022619   -0.671710    1.403860
            21    0       0.728720      1.262180      2.061140    -0.592288    2.740523    0.557586
            22    0       0.000000      0.000000      1.545850    -6.090969   12.800616   -4.482589
            23    0       0.000000      2.524370      1.545850     0.560947    0.832641   -0.005845
            24    0       1.457450      0.000000      4.122280    10.870850   12.037328    1.544065
            25    0       2.914890      0.000000      3.607000    -3.051531   -0.462017    0.998612
            26    0       2.914890      0.000000      2.061140     7.564831   11.726000    5.400921
            27    0       2.914890      2.524370      2.061140    -1.269853    1.876807   -0.636142
            28    0       2.186170      1.262180      1.545850     0.342263    2.470151    0.682172
            29    0       4.372340      0.000000      1.545850     0.544257    0.642046   -2.919589
            30    0      21.558530      3.786560      1.545850     0.788097    0.119042   -6.324427
            31    0       0.728720      3.786560      2.061140     3.985580   -0.549428   -0.742525
            32    0       2.186170      3.786560      1.545850    -3.532546   -3.298621   -1.437524
            33    0       0.000000     18.786590      0.000000    -0.688071    0.429524    5.926844
            34    0      19.372360     21.310960      0.000000     2.172763    2.575955    0.518436
            35    0      21.558530     20.048780      0.000000    -0.287924   -0.241600    4.968460
            36    0      21.558530     22.573150      0.000000     0.206423    2.192102   -0.672480
            37    0       0.000000     21.310960      0.000000     2.000890    1.117612   -1.599232
            38    0      23.015980     22.573150     19.122320    -6.602236   -7.134562   -1.725698
            39    0       2.186170     20.048780      0.000000     4.344842    1.604704    0.518861
            40    0       2.186170     22.573150      0.000000    -1.060956   -2.756314   -2.797737
            41    0       1.457450     21.310960     19.122320    -1.105771   -0.524501    3.088159
            42    0       4.372340     21.310960      0.000000    -3.917555   -5.008532   -2.886019
            43    0       3.643620     20.048780     19.122320    -0.604455    3.922077    1.583984
            44    0       3.643620     22.573150     19.122320    -3.504377   -9.760800   -0.551628
            45    0       0.000000     18.786590      1.545850    -0.677159    1.402149   -6.623128
            46    0      20.101080     22.573150      2.061140     5.297681   -4.881303    1.303996
            47    0      23.015980     22.573150      4.122280     2.494539  -11.647654    0.208004
            48    0      22.287250     21.310960      3.607000     3.040931    1.441891    0.863510
            49    0      22.287250     21.310960      2.061140    -1.802437   -3.731554    1.659322
            50    0      21.558530     20.048780      1.545850     1.809973    0.615892   -5.999713
            51    0      21.558530     22.573150      1.545850    -7.425874  -12.938954   -4.620290
            52    0       0.728720     20.048780      3.607000     1.454324    6.159414    0.974604
            53    0       0.728720     20.048780      2.061140     0.990873   -3.368796    1.445301
            54    0       0.728720     22.573150      3.607000    -5.686349  -10.358685    0.006327
            55    0       0.728720     22.573150      2.061140     5.925899  -12.853859    2.939909
            56    0       0.000000     21.310960      1.545850     0.492199   -1.744695    0.656476
            57    0       1.457450     21.310960      4.122280    -2.344305   -6.048022   -3.241918
            58    0       2.914890     21.310960      2.061140    -2.114949   -3.700926   -0.328897
            59    0       2.186170     20.048780      1.545850    -0.703627    3.438454   -1.191293
            60    0       2.186170     22.573150      1.545850    -6.231858  -11.526280   -4.202170
 Energy
       -411.373802500000
 PlusStress:  xx          yy          zz          yz          xz          xy
       -23.95775    41.01156   -47.23858    11.48423    31.76593     8.20941
 Feature   EFS_by	VASP
 Feature   mindist	1.239310
END_CFG

BEGIN_CFG
 Size
    85
 Supercell
        23.744700      0.000000      0.000000
         0.000000     23.433000      0.000000
         0.000000      0.000000     21.698700
 AtomData:  id type       cartes_x      cartes_y      cartes_z           fx          fy          fz
             1    0       0.000000      0.000000      0.000000    -0.251139    1.847299   -0.188335
             2    0      23.015980     22.170820     19.637560    -1.427088    0.229206   -0.315661
             3    0      23.015980      1.262190     19.637560    -1.227578   -3.637089   -0.295981
             4    0      22.287250      0.000000     19.122270     3.177056    0.682342    3.457911
             5    0       1.457450      0.000000     19.637560    -1.065989   -1.226294    0.622709
             6    0       3.643620     22.170820     19.637560     1.268395    1.799699    1.326711
             7    0       3.643620      1.262190     19.637560    -3.218852    4.539189    1.467754
             8    0      23.015980      3.786560     19.637560     6.042975   -0.641359    1.410355
             9    0       0.728720      3.786560     19.122270    -5.368440   -2.222957    2.753665
            10    0       1.457450      2.524370     19.637560     2.106895    3.768232   -2.790815
            11    0       2.914890      2.524370     19.122270     0.137742   -5.578931    3.065281
            12    0      22.287250      0.000000      2.061140    -0.643165    2.692804    0.502133
            13    0      21.558530     22.170820      1.545850    -8.153107   11.969350   -4.070067
            14    0      21.558530     22.170820      0.000000     7.423885   11.148729    3.932436
            15    0      21.558530      1.262190      1.545850    -1.010233   -0.052658    0.187463
            16    0      21.558530      1.262190      0.000000    -0.854047    0.241735   -0.280874
            17    0       0.728720     22.170820      2.061140     5.288802   12.495384    3.284686
            18    0       0.728720      1.262190      2.061140    -0.124989    0.791779    0.373875
            19    0       0.000000      0.000000      1.545850     0.353653    1.838207    0.323442
            20    0      23.015980     22.170820     21.183410    -5.663077   12.417289   -5.460469
            21    0      23.015980      1.262190     21.183410     0.765785    0.439129   -1.013070
            22    0       2.914890      0.000000      2.061140     1.518243    2.791806    1.029205
            23    0       2.186170     22.170820      1.545850    -4.847329   10.494791   -3.390290
            24    0       2.186170     22.170820      0.000000     5.150625   12.491636    4.188797
            25    0       2.186170      1.262190      1.545850     0.490949    1.297200   -0.095841
            26    0       2.186170      1.262190      0.000000     0.238962    0.682852    0.124776
            27    0       1.457450      0.000000     21.183410     0.216613    1.736527   -0.652571
            28    0       4.372340      0.000000      1.545850    -1.103489   -0.663196   -4.961076
            29    0       4.372340      0.000000      0.000000    -2.444264    4.271483    5.079858
            30    0       3.643620     22.170820     21.183410    -1.977899   10.526104   -5.613971
            31    0       3.643620      1.262190     21.183410     1.427600   -2.538181   -3.229684
            32    0      22.287250      2.524370      2.061140    -0.888434    2.243775    1.452684
            33    0      21.558530      3.786560      1.545850     0.448015   -0.956244   -5.095010
            34    0      21.558530      3.786560      0.000000     1.215119   -2.633108    5.379923
            35    0       0.728720      3.786560      2.061140     3.039255   -0.281778   -0.449051
            36    0       0.000000      2.524370      1.545850     1.025701    0.680825   -0.383922
            37    0       0.000000      2.524370      0.000000    -0.102890    0.600690    0.361056
            38    0      23.015980      3.786560     21.183410    -2.860269    0.316794   -3.734576
            39    0       2.914890      2.524370      2.061140    -1.945331    2.506988   -0.722174
            40    0       2.186170      3.786560      1.545850    -2.212607   -3.833435   -2.464811
            41    0       2.186170      3.786560      0.000000    -0.291169   -0.230125    4.242352
            42    0       1.457450      2.524370     21.183410     0.137906    0.232926    0.045563
            43    0      23.015980     22.170820      4.122280     1.180699    5.463659    0.201390
            44    0      23.015980      1.262190      4.122280    -1.840695    2.552279   -4.697994
            45    0      22.287250      0.000000      3.606990     2.458586    1.583694    1.976458
            46    0       0.728720     22.170820      3.606990    -4.317761    9.844000    0.650169
            47    0       0.728720      1.262190      3.606990    -1.355787   -2.274150    2.583935
            48    0       1.457450      0.000000      4.122280     3.743003    4.022380   -4.486953
            49    0       2.914890      0.000000      3.606990    -5.430223   -0.655944    0.744146
            50    0      22.287250      2.524370      3.606990     2.347212   -4.036705    0.811967
            51    0      20.829810      0.000000     19.637560    -0.937906    1.001006   -4.157303
            52    0      20.101080     22.170820     19.122270    -0.782031    2.091886   -0.881332
            53    0      20.101080      1.262190     19.122270     3.197799    4.843527    3.045029
            54    0      20.829810      2.524370     19.637560    -2.368259   -5.092995    1.260047
            55    0      20.101080     22.170820      2.061140    -1.925207    1.503909   -2.082040
            56    0      20.101080      1.262190      2.061140    -1.210929   -3.131461   -0.783164
            57    0      19.372360      0.000000      1.545850     5.087598    1.839443   -1.185852
            58    0      19.372360      0.000000      0.000000     0.965538   -4.230552    3.356561
            59    0      20.829810      0.000000     21.183410    -1.018655    3.409683    1.019294
            60    0      20.829810      2.524370     21.183410     1.695291    2.891479   -3.730561
            61    0      23.015980     20.048780     19.637560     0.587720    2.509941   -0.327125
            62    0       1.457450     21.310960     19.637560     0.307796    0.589845   -0.727293
            63    0       2.914890     21.310960     19.122270    -4.914923   -1.578853   -0.068243
            64    0      22.287250     21.310960      2.061140     5.083653  -14.496548    5.995365
            65    0      21.558530     20.048780      1.545850     1.761972   -1.988257   -5.091068
            66    0      21.558530     20.048780      0.000000     0.403663    0.998388    5.309740
            67    0       0.728720     20.048780      2.061140     1.710066   -5.517209    0.627102
            68    0       0.000000     18.786590      1.545850    -1.317668    0.770124   -3.794448
            69    0       0.000000     18.786590      0.000000     5.034108    2.214929    2.666244
            70    0       0.000000     21.310960      1.545850    -6.292477  -11.122290   -4.304433
            71    0       0.000000     21.310960      0.000000     7.031058  -12.051888    5.362604
            72    0      23.015980     20.048780     21.183410    -0.732279   -4.472358   -1.517741
            73    0       2.914890     21.310960      2.061140     6.052150  -13.295558    4.233132
            74    0       2.186170     20.048780      1.545850    -0.617584    1.359606   -0.324346
            75    0       2.186170     20.048780      0.000000     1.070413   -5.105931    0.418598
            76    0       1.457450     18.786590     21.183410    -4.096194    0.136677    1.663061
            77    0       1.457450     21.310960     21.183410    -6.526588  -11.050750   -5.757045
            78    0       4.372340     21.310960      0.000000     3.314496  -15.428767    4.252255
            79    0       3.643620     20.048780     21.183410     2.159335    3.534960    1.715211
            80    0      22.287250     21.310960      3.606990    -2.520155   -4.352128   -2.886326
            81    0       0.728720     20.048780      3.606990     1.380310    3.922214    1.171256
            82    0       1.457450     21.310960      4.122280     4.929441  -15.521094    0.980208
            83    0      20.829810     21.310960     19.637560     0.774155   -2.646099    2.671073
            84    0      19.372360     21.310960      0.000000     0.180463    2.329030    0.226672
            85    0      20.829810     21.310960     21.183410    -8.043991  -14.642538   -5.542634
 Energy
       -610.322081790000
 PlusStress:  xx          yy          zz          yz          xz          xy
       -26.46816    72.53249   -54.38616    -5.37144    36.38759   -12.46103
 Feature   EFS_by	VASP
 Feature   mindist	1.239321
END_CFG

BEGIN_CFG
 Size
    54
 Supercell
        23.648800      0.000000      0.000000
         0.000000     22.573100      0.000000
         0.000000      0.000000     19.637600
 AtomData:  id type       cartes_x      cartes_y      cartes_z           fx          fy          fz
             1    0       0.000000      0.000000      0.000000    -0.392505    1.762401   -1.873299
             2    0      21.462630     18.786540      0.000000     0.159949    0.457181    5.531660
             3    0       2.186170     18.786540      0.000000    -0.258044   -0.050948    5.652169
             4    0      19.276460      0.000000      0.000000     0.171080   -0.109757    4.318789
             5    0      21.462630     21.310920      0.000000     0.332871   -0.688321    0.685140
             6    0       0.000000     20.048730      0.000000    -1.046666    0.090194    0.816613
             7    0       2.186170     21.310920      0.000000    -5.545692   -3.713935    4.709303
             8    0       1.457450      0.000000     19.122320    -3.530780   -2.476975   -0.470564
             9    0      21.462630      1.262190      0.000000     1.607228    2.236468   -0.614284
            10    0      21.462630      3.786560      0.000000     2.409436   -4.044076    0.792183
            11    0      20.733910      2.524370     19.122320     1.937836    1.039220    1.979894
            12    0       0.000000      2.524370      0.000000    -1.032253    0.233912   -3.580326
            13    0      22.920080      1.262190     19.122320    -1.744372   -2.045813    2.698702
            14    0      22.920080      3.786560     19.122320    -3.496918   -0.156552    1.999571
            15    0       2.186170      1.262190      0.000000   -10.860621    0.348054    8.386855
            16    0       2.186170      3.786560      0.000000     2.723423   -1.127244    2.224221
            17    0       1.457450      2.524370     19.122320    -3.613334    1.215648    0.223289
            18    0      21.462630     18.786540      1.545850     0.680836    1.749523   -6.870238
            19    0       0.728720     18.786540      2.061140     4.750467    0.888175   -2.487631
            20    0       2.186170     18.786540      1.545850    -5.100486   -0.481416   -3.741395
            21    0      20.005180     21.310920      2.061140    -0.134363    2.659338   -1.347543
            22    0      19.276460      0.000000      1.545850     2.249945    0.208009   -2.885811
            23    0      22.191350     20.048730      3.607000     2.346722    4.123420    1.048052
            24    0      22.191350     20.048730      2.061140    -1.168469   -1.660050    0.484085