BEGIN_CFG
 Size
    10
 Supercell
         1.955000      0.000000      1.955000
         0.000000     19.550000      0.000000
        -1.955000      0.000000      1.955000
 AtomData:  id type       cartes_x      cartes_y      cartes_z           fx          fy          fz
             1    0       0.000000      0.000000      0.000000     0.000001   -1.142063    0.000000
             2    0       0.000000      1.955000      1.955000    -0.000002   -0.050902    0.000001
             3    0       0.000000      3.910000      0.000000    -0.000002    0.079547   -0.000002
             4    0       0.000000      5.865000      1.955000     0.000001    0.000412   -0.000001
             5    0       0.000000      7.820000      0.000000     0.000001   -0.078648   -0.000001
             6    0       0.000000      9.775000      1.955000    -0.000001    0.051866   -0.000001
             7    0       0.000000     11.730000      0.000000    -0.000000    1.143275   -0.000001
             8    1       0.000000     13.685000      1.955000    -0.000002    0.329517    0.000002
             9    1       0.000000     17.595000      1.955000     0.000004   -0.333624    0.000005
            10    2       0.000000     15.640000      0.000000    -0.000001    0.000621   -0.000002
 Energy
        -38.469147310000
 PlusStress:  xx          yy          zz          yz          xz          xy
        -0.45882    -2.43656    -0.45871     0.00001    -0.00000     0.00001
END_CFG

BEGIN_CFG
 Size
    8
 Supercell
         2.922300      0.000000      0.000000
         0.000000     12.461800      0.000000
         0.000000      0.000000      2.922390
 AtomData:  id type       cartes_x      cartes_y      cartes_z           fx          fy          fz
             1    0       0.000000     12.210400      0.000000    -0.000001   -0.049694    0.000011
             2    0       1.461150      1.809150      1.461200    -0.000001    0.048338   -0.000012
             3    0       1.461150      5.036310      1.461200    -0.000003    0.017689   -0.000033
             4    0       0.000000      8.983200      0.000000     0.000001   -0.017095    0.000032
             5    1       0.000000      3.442080      0.000000    -0.000001   -0.034376    0.000015
             6    1       1.461150     10.577400      1.461200    -0.000001    0.034471   -0.000018
             7    2       0.000000      6.271490      0.000000     0.000005   -0.086325    0.000034
             8    2       1.461150      7.748010      1.461200     0.000001    0.086993   -0.000030
 Energy
        -35.437014550000
 PlusStress:  xx          yy          zz          yz          xz          xy
        -0.29333     0.07089    -0.29390     0.00004    -0.00001     0.00001
END_CFG

BEGIN_CFG
 Size
    5
 Supercell
         2.604420      0.000000      0.000000
        -1.302210      2.255490      0.000000
        -0.000002     -1.503660     10.264400
 AtomData:  id type       cartes_x      cartes_y      cartes_z           fx          fy          fz
             1    0       0.000000      0.000000      0.000000    -0.000000    0.000007    0.000866
             2    1       0.000000      1.503660      2.119860     0.000003   -0.000298    0.009742
             3    1       1.302210     -0.751830      8.144560    -0.000006    0.000298   -0.008179
             4    2       1.302210      0.751830      4.153770     0.000005    0.000402    0.009616
             5    2      -0.000000      0.000000      6.110640    -0.000002   -0.000408   -0.012044
 Energy
        -22.091819650000
 PlusStress:  xx          yy          zz          yz          xz          xy
         0.58596     0.57776     0.63168    -0.00235    -0.00001    -0.00003
END_CFG

BEGIN_CFG
 Size
    8
 Supercell
         4.437490      0.000000      0.000000
         0.000003      4.149110      0.000000
        -2.205000      2.074560      5.616410
 AtomData:  id type       cartes_x      cartes_y      cartes_z           fx          fy          fz
             1    0       1.868120      2.074560      5.146160     0.001917   -0.000165    0.007780
             2    0       2.222180      4.149110      1.404100     0.000000   -0.000005   -0.000194
             3    0       0.371230      4.149110      3.278450    -0.001791    0.000146   -0.007426
             4    0       0.003430      2.074550      1.404100     0.000123    0.000025    0.000269
             5    2       2.586830      4.149110      4.207940     0.125106   -0.000169   -0.081376
             6    2       2.441940      2.074550      0.117710     0.108251   -0.000191   -0.181123
             7    2       2.002410      2.074560      2.690500    -0.108548    0.000195    0.180863
             8    2      -0.347480      2.074560      4.216680    -0.125057    0.000164    0.081206
 Energy
        -40.377502770000
 PlusStress:  xx          yy          zz          yz          xz          xy
         0.33594     0.12663     0.16359     0.00533     0.32430     0.00862
END_CFG

BEGIN_CFG
 Size
    7
 Supercell
         2.820340      0.000000      0.000000
         0.000079      3.962630      0.000000
         0.013385      1.979780      8.778030
 AtomData:  id type       cartes_x      cartes_y      cartes_z           fx          fy          fz
             1    0       2.435800      1.979810      8.327590     0.005429    0.000689   -0.363152
             2    0       1.013060      1.976500      1.082210    -0.010753    0.016675    1.269936
             3    0       2.421330      3.962190      2.508010    -0.000016    0.000090    0.000337
             4    0       1.009170      1.985260      3.933800     0.010773   -0.016579   -1.270793
             5    0       2.420160      3.961730      5.466460    -0.005473   -0.000569    0.362727
             6    2       0.991160      1.978260      6.149050     0.084720    0.020692    0.796975
             7    2       1.044460      3.963280      7.645000    -0.084679   -0.020999   -0.796030
 Energy
        -31.486150300000
 PlusStress:  xx          yy          zz          yz          xz          xy
         1.56447     1.07631     4.92481    -0.01025    -0.03955     0.00278
END_CFG

BEGIN_CFG
 Size
    8
 Supercell
         3.865960      0.000000      0.000000
         0.000010      4.971010      0.000000
        -0.000026      0.936392      4.882010
 AtomData:  id type       cartes_x      cartes_y      cartes_z           fx          fy          fz
             1    0      -0.000010      5.735960      4.740330    -0.000057    0.048701    0.040117
             2    0       1.932970      1.476850      1.220500     0.000069    0.000212   -0.000156
             3    0       3.865950      3.125140      2.582690     0.000005   -0.048826   -0.039964
             4    2       1.932970      4.430550      3.661510    -0.000009    0.000345   -0.000413
             5    2       0.000010      2.369360      0.140530    -0.000108    0.015737   -0.018880
             6    2       1.932980      3.962360      1.220500     0.000016    0.000052    0.000037
             7    2       3.865940      0.584340      2.300470     0.000055   -0.016149    0.019407
             8    2       1.932960      1.945050      3.661510     0.000029   -0.000072   -0.000147
 Energy
        -43.079350230000
 PlusStress:  xx          yy          zz          yz          xz          xy
        -1.33083    -0.06354     0.16146    -0.58498     0.00040    -0.00027
END_CFG

BEGIN_CFG
 Size
    2
 Supercell
         2.064180      0.000000      2.064180
         0.000000      2.927130      0.000000
        -2.064180      0.000000      2.064180
 AtomData:  id type       cartes_x      cartes_y      cartes_z           fx          fy          fz
             1    0       0.000000      0.000000      0.000000     0.000001   -0.000025   -0.000000
             2    2       0.000000      1.463560      2.064180    -0.000001    0.000025    0.000000
 Energy
        -10.529525780000
 PlusStress:  xx          yy          zz          yz          xz          xy
        -0.71080    -0.73622    -0.71080     0.00001    -0.00000    -0.00000
END_CFG

BEGIN_CFG
 Size
    8
 Supercell
         4.657440      0.000000      0.000000
        -1.804840      4.293470      0.000000
         0.000012      0.000048      5.101610
 AtomData:  id type       cartes_x      cartes_y      cartes_z           fx          fy          fz
             1    0       2.852570      4.293470      0.637760     0.000346    0.000250   -0.000503
             2    0       1.426310      2.146750      0.637650    -0.000214   -0.000347   -0.000135
             3    0       3.755000      2.146740      2.202770     0.000150   -0.000019   -0.059868
             4    0       2.328750      0.000050      4.174240    -0.000198    0.000038    0.060025
             5    1       2.852610      4.293490      3.188550     0.000114    0.000028    0.001223
             6    1       1.426300      2.146770      3.188470    -0.000107   -0.000034    0.001072
             7    2      -0.902410      2.146800      4.739710     0.000049   -0.000051   -0.306995
             8    2       0.523880      4.293450      1.637310    -0.000138    0.000135    0.305181
 Energy
        -36.300606580000
 PlusStress:  xx          yy          zz          yz          xz          xy
         0.71566     1.12084     0.76090    -0.00006     0.00005     0.48078
END_CFG

BEGIN_CFG
 Size
    4
 Supercell
         0.002078      3.699090      0.000747
        -3.699090     -0.002078      0.000747
        -1.849250      1.849250      3.314960
 AtomData:  id type       cartes_x      cartes_y      cartes_z           fx          fy          fz
             1    0       0.000000      0.000000      0.000000     0.000048    0.000007    0.000027
             2    2      -3.699360      1.846890      1.658230     0.009485    0.009573   -0.000010
             3    2      -1.848500      1.848510      0.000750    -0.000037   -0.000058   -0.000001
             4    2      -1.846900      3.699360      1.658230    -0.009496   -0.009522   -0.000015
 Energy
        -21.770995270000
 PlusStress:  xx          yy          zz          yz          xz          xy
         0.04084     0.04081     0.33917    -0.01656     0.01655    -0.02723
END_CFG

BEGIN_CFG
 Size
    3
 Supercell
         1.992220      0.001599      1.993140
         0.000000      4.780290      1.997820
        -1.992220      0.001599      1.993140
 AtomData:  id type       cartes_x      cartes_y      cartes_z           fx          fy          fz
             1    0       0.000000      4.625050      1.997560     0.000003    0.748790   -0.004489
             2    1       0.000000      1.643040      1.994280    -0.000002   -0.191770    0.005398
             3    2       0.000000      3.295680      3.990090    -0.000001   -0.557020   -0.000909
 Energy
        -13.841323720000
 PlusStress:  xx          yy          zz          yz          xz          xy
        -0.13367    -1.26604    -0.16106    -0.05175     0.00000    -0.00001
END_CFG

BEGIN_CFG
 Size
    3
 Supercell
         1.815370     -0.000137      1.815920
        -0.000379      3.482970      0.000106
        -1.736140      1.741780      3.552460
 AtomData:  id type       cartes_x      cartes_y      cartes_z           fx          fy          fz
             1    0       0.000000      0.000000      0.000000    -0.001803   -0.000012    0.001786
             2    2       0.031100      1.741410      1.784660     0.029265   -0.000043   -0.029028
             3    2       0.047760      3.483200      3.583820    -0.027462    0.000055    0.027241
 Energy
        -15.944428160000
 PlusStress:  xx          yy          zz          yz          xz          xy
         2.25077     1.11590     2.26439    -0.00084    -0.08056     0.00341
END_CFG

BEGIN_CFG
 Size
    8
 Supercell
         2.739900      0.000000      0.000000
         0.000018      4.044470      0.000000
         0.000016      0.000061      8.366400
 AtomData:  id type       cartes_x      cartes_y      cartes_z           fx          fy          fz
             1    0       0.000020      0.000100      8.126270     0.000005   -0.000044    0.057228
             2    0       0.000020      2.022230      2.331720    -0.000043   -0.000259   -0.056875
             3    1       0.000040      4.044250      4.015300    -0.000110    0.000415   -0.071603
             4    1       0.000030      2.022520      6.442710    -0.000062   -0.000280    0.071620
             5    2       1.369970      4.044480      1.854620     0.000052   -0.000093    0.088082
             6    2       1.369960      0.000270      6.071230     0.000070   -0.000383    0.120021
             7    2       1.369970      2.022220      0.236990    -0.000029    0.000337   -0.087856
             8    2       1.369960      2.022040      4.386780     0.000117    0.000307   -0.120616
 Energy
        -39.517233870000
 PlusStress:  xx          yy          zz          yz          xz          xy
         0.83597     3.01894     1.07769     0.00047    -0.00012    -0.00028
END_CFG

BEGIN_CFG
 Size
    4
 Supercell
         2.118650     -0.000013      2.118650
        -0.000055      5.188160      0.000015
        -2.118650      0.000022      2.118650
 AtomData:  id type       cartes_x      cartes_y      cartes_z           fx          fy          fz
             1    0       2.118590      5.186770      2.118660     0.000017    0.019308    0.000048
             2    1      -0.000030      2.595750      0.000010    -0.000001   -0.023220   -0.000006
             3    2      -0.000030      1.333970      2.118670     0.000076   -0.442429   -0.000128
             4    2      -0.000030      3.853920      2.118650    -0.000092    0.446341    0.000085
 Energy
        -19.772876100000
 PlusStress:  xx          yy          zz          yz          xz          xy
        -0.27119     1.77915    -0.27116    -0.00011    -0.00000     0.00052
END_CFG

BEGIN_CFG
 Size
    6
 Supercell
         3.968510      0.000000      0.000000
        -0.000317      7.569980      0.000000
        -0.000044      0.517141      2.750070
 AtomData:  id type       cartes_x      cartes_y      cartes_z           fx          fy          fz
             1    0      -0.000300      7.213660      0.422750     0.000054   -0.319738    0.060052
             2    0       1.984180      1.511260      1.495290    -0.000033    0.215203   -0.039644
             3    0      -0.000140      3.049440      2.629810     0.000022   -0.214676    0.039540
             4    0       1.984060      4.399870      0.952280    -0.000026    0.319817   -0.060064
             5    2       3.968260      5.342670      2.198800    -0.000030   -0.052199    0.007137
             6    2       1.983970      6.788010      1.926300     0.000013    0.051592   -0.007020
 Energy
        -27.989464690000
 PlusStress:  xx          yy          zz          yz          xz          xy
         0.09644     1.70479     1.05802    -0.14213     0.00033     0.00161
END_CFG

BEGIN_CFG
 Size
    4
 Supercell
         0.000004      0.000000      4.430220
        -0.000005      4.430220      0.000000
        -2.503210      0.000004     -0.000004
 AtomData:  id type       cartes_x      cartes_y      cartes_z           fx          fy          fz
             1    0       0.000000      0.000000      0.000000    -0.000011   -0.000014    0.000011
             2    0      -2.503210      2.215110      2.215110    -0.000013    0.000015   -0.000017
             3    1      -1.251610      2.215110     -0.000000     0.000012    0.000019    0.000022
             4    2      -1.251610      4.430220      2.215110     0.000013   -0.000019   -0.000016
 Energy
        -17.835875580000
 PlusStress:  xx          yy          zz          yz          xz          xy
         9.05269    -0.11419    -0.11419     0.00001    -0.00006     0.00007
END_CFG

BEGIN_CFG
 Size
    8
 Supercell
         6.704160      0.000000      0.000000
         1.308530      4.523220      0.000000
         1.597760     -1.375930      4.180860
 AtomData:  id type       cartes_x      cartes_y      cartes_z           fx          fy          fz
             1    0       2.915900      2.563150      3.913730     0.123806   -0.030574    0.023655
             2    0       5.478280      2.940820      0.121650    -0.008089   -0.085731   -0.067728
             3    0       1.332890      1.625290      1.245920     0.094574    0.102579   -0.073147
             4    0       3.999190      0.907170      1.367120    -0.094922   -0.102914    0.073559
             5    0       6.557960     -0.408370      2.491390     0.009483    0.085792    0.067664
             6    0       5.322470      3.116590      2.880160    -0.124373    0.031230   -0.023736
             7    2       2.162370      0.328820      3.135910     0.054409   -0.126973   -0.037308
             8    2       4.767460      0.827710      3.657980    -0.054888    0.126591    0.037040
 Energy
        -35.596768320000
 PlusStress:  xx          yy          zz          yz          xz          xy
        -2.64534    -0.60529     0.17418     0.34922     0.98264     0.11389
END_CFG

BEGIN_CFG
 Size
    7
 Supercell
         2.739360      0.000000      0.000000
        -1.369670     13.225700      0.000000
         0.000000     -0.286846      2.739590
 AtomData:  id type       cartes_x      cartes_y      cartes_z           fx          fy          fz
             1    0       1.369680     12.334600      1.885000    -0.000242   -0.004371   -0.000846
             2    0       1.369670      1.525620      2.138060    -0.000567    0.246189    0.026159
             3    0       0.000010      3.814710      0.992900     0.000449   -0.246815   -0.026623
             4    0       1.369690      6.231370      1.245960     0.000097    0.004411    0.000406
             5    1       1.369690      9.283010      1.565480     0.000902    0.000180    0.001189
             6    2       0.000010      7.836790      0.029240    -0.001141   -0.010066   -0.001984
             7    2       0.000000     11.016100      0.362130     0.000502    0.010472    0.001699
 Energy
        -30.845795020000
 PlusStress:  xx          yy          zz          yz          xz          xy
         1.14061    -1.46232     1.83511    -0.34153    -0.00031     0.00533
END_CFG

BEGIN_CFG
 Size
    6
 Supercell
         2.964860      0.000000      0.000000
         0.000000      7.979850      0.000000
         0.000008      0.000000      2.964850
 AtomData:  id type       cartes_x      cartes_y      cartes_z           fx          fy          fz
             1    0       2.964850      0.000000      0.000000     0.000025   -0.001491    0.000027
             2    1       1.482430      1.408460      1.482430     0.000007   -0.052210   -0.000020
             3    1       1.482430      6.571390      1.482430     0.000012    0.048686   -0.000042
             4    2       0.000000      2.724340      0.000000    -0.000031    0.032936    0.000029
             5    2       1.482430      3.989930      1.482430     0.000026    0.002343   -0.000031
             6    2       0.000000      5.255510      0.000000    -0.000039   -0.030264    0.000037
 Energy
        -27.944888650000
 PlusStress:  xx          yy          zz          yz          xz          xy
         0.56244     0.45111     0.56237    -0.00001    -0.00013     0.00002
END_CFG

BEGIN_CFG
 Size
    4
 Supercell
         3.611370      0.000000      0.000000
         0.000000      3.611370      0.000000
         0.000000      0.000000      3.611370
 AtomData:  id type       cartes_x      cartes_y      cartes_z           fx          fy          fz
             1    1       0.000000      0.000000      0.000000    -0.000042   -0.000041   -0.000029
             2    1       1.805680      1.805680      0.000000     0.000045    0.000037   -0.000035
             3    1       0.000000      1.805680      1.805680    -0.000032    0.000035    0.000034
             4    2       1.805680      0.000000      1.805680     0.000029   -0.000031    0.000029
 Energy
        -16.602463480000
 PlusStress:  xx          yy          zz          yz          xz          xy
        -1.11246    -1.10969    -1.11145    -0.00004    -0.00007    -0.00009
END_CFG

BEGIN_CFG
 Size
    8
 Supercell
         2.776090      0.000000      0.000000
         0.000002      7.748660      0.000000
         0.000003      1.798630      4.960350
 AtomData:  id type       cartes_x      cartes_y      cartes_z           fx          fy          fz
             1    0       2.776090      7.428780      0.012270     0.000004    0.090162    0.088954
             2    0       1.388040      2.124200      0.537390     0.000012   -0.088981    0.064458
             3    0       2.776090      4.572940      1.053490     0.000002   -0.013341    0.211736
             4    0       1.388040      6.697970      2.401690    -0.000005   -1.353159   -3.707358
             5    0       1.388050      3.039800      3.014050    -0.000014    0.126275    0.009186
             6    2       2.776090      1.056180      2.334780    -0.000009   -0.226431    0.068800
             7    2       2.776090      5.019320      3.704520    -0.000001    0.179478   -0.103138
             8    2       1.388050      7.350670      4.303040     0.000012    1.285997    3.367362
 Energy
        -37.499349120000
 PlusStress:  xx          yy          zz          yz          xz          xy
         0.74319     0.72222     6.33636     2.13019     0.00008     0.00001
END_CFG

BEGIN_CFG
 Size
    8
 Supercell
         4.247920      0.000000      0.000000
         2.123960      7.164300      0.000000
        -2.123960     -0.629677      3.624520
 AtomData:  id type       cartes_x      cartes_y      cartes_z           fx          fy          fz
             1    0       0.000000      6.328830      3.588770     0.001376    0.076241    0.012395
             2    0       2.123960      0.659410      1.359190    -0.000001   -0.000546   -0.000070
             3    0       0.000000      1.524610      2.754140    -0.001367   -0.077421   -0.012632
             4    0       2.123960      3.416300      1.838140     0.000354   -0.141002   -0.024700
             5    0       4.247920      5.066830      0.880250    -0.000401    0.140979    0.024684
             6    1       4.247920      2.469180      0.428970     0.001816    0.070565    0.011172
             7    1       2.123960      6.013940      2.289420    -0.001810   -0.069515   -0.010982
             8    2      -0.000010      3.926720      3.171450     0.000035    0.000700    0.000133
 Energy
        -32.751614490000
 PlusStress:  xx          yy          zz          yz          xz          xy
         1.41049     0.43384     1.36462    -0.17315    -0.01088     0.01247
END_CFG

BEGIN_CFG
 Size
    3
 Supercell
         2.520310      0.000000      0.000000
         0.000011      3.612480      0.000000
        -1.260150      1.806230      3.796160
 AtomData:  id type       cartes_x      cartes_y      cartes_z           fx          fy          fz
             1    1       1.260150      1.806220      3.783560    -0.000522    0.000815    0.036530
             2    1       1.260170      1.806240      1.277990     0.000392   -0.001033   -0.036344
             3    2       0.000010      3.612470      2.530770     0.000130    0.000219   -0.000187
 Energy
        -12.868673200000
 PlusStress:  xx          yy          zz          yz          xz          xy
         0.22812     0.00071     0.09580     0.00171    -0.00214    -0.00171
END_CFG

BEGIN_CFG
 Size
    8
 Supercell
         3.976000      0.000000      0.000000
         0.000000      5.219040      0.000000
         0.000000     -2.359330      5.935140
 AtomData:  id type       cartes_x      cartes_y      cartes_z           fx          fy          fz
             1    0       0.000000      0.238440      0.116040    -0.000001    0.151621   -0.026039
             2    0       1.988000      1.192510      2.111460    -0.000002    0.062346   -0.031865
             3    0       0.000000      2.532340      3.311590    -0.000003   -0.083212   -0.083278
             4    0       1.988000     -0.954020      4.201860     0.000002    0.120202    0.025006
             5    0       0.000000      0.481380      5.330350    -0.000002   -0.060583    0.103504
             6    0       1.988000      3.767860      1.291030     0.000000   -0.176985    0.000750
             7    1       0.000000     -0.273280      2.597900     0.000002   -0.018087    0.049352
             8    2       1.988000      1.844080      4.780340     0.000004    0.004698   -0.037430
 Energy
        -33.005747760000
 PlusStress:  xx          yy          zz          yz          xz          xy
        -0.39309    -1.75587     0.56137     0.16507     0.00001     0.00002
END_CFG

BEGIN_CFG
 Size
    4
 Supercell
         3.656350      0.000000      0.000000
         0.000000      3.656350      0.000000
         0.000000      0.000000      3.656350
 AtomData:  id type       cartes_x      cartes_y      cartes_z           fx          fy          fz
             1    0       0.000000      0.000000      0.000000     0.000034    0.000036    0.000038
             2    1       1.828180      1.828180      0.000000    -0.000035   -0.000034    0.000032
             3    1       0.000000      1.828180      1.828180     0.000035   -0.000032   -0.000034
             4    1       1.828180      0.000000      1.828180    -0.000034    0.000030   -0.000036
 Energy
        -15.629184640000
 PlusStress:  xx          yy          zz          yz          xz          xy
        -0.38976    -0.38947    -0.38904     0.00002    -0.00003    -0.00002
END_CFG

BEGIN_CFG
 Size
    7
 Supercell
         4.075800      0.000000      0.000000
         0.000003      6.784630      0.000000
        -2.037900      1.224240      3.310640
 AtomData:  id type       cartes_x      cartes_y      cartes_z           fx          fy          fz
             1    0       0.000000      6.703520      0.029990    -0.000109   -0.172271    0.063336
             2    0       2.037900      2.645660      0.276110     0.001352   -0.005542    0.004123
             3    0       2.037900      5.629100      1.681760    -0.001003    0.245677   -0.092240
             4    1       0.000000      4.239850      0.941040    -0.000373   -0.000054   -0.000608
             5    1       0.000000      1.876370      1.815030    -0.000921   -0.057377    0.020493
             6    2       2.037900      3.366860      2.518320    -0.001494    0.128425   -0.048013
             7    2       0.000000      6.349890      2.669660     0.002548   -0.138858    0.052909
 Energy
        -32.299954000000
 PlusStress:  xx          yy          zz          yz          xz          xy
        -1.20289    -0.51884    -1.13765    -0.26931     0.00004    -0.00539
END_CFG

BEGIN_CFG
 Size
    7
 Supercell
         3.011510      0.000000      0.000000
         1.505750      9.669420      0.000000
         0.000002      0.468940      2.974750
 AtomData:  id type       cartes_x      cartes_y      cartes_z           fx          fy          fz
             1    0       1.505750      9.527470      0.022380     0.000186   -0.054449    0.008764
             2    0       3.011510      3.306600      2.527400    -0.000786    0.051975   -0.008942
             3    1       1.505750      1.582320      1.274890     0.000227   -0.001239    0.000409
             4    1       1.505750      4.407490      0.829520     0.000570   -0.106606    0.017305
             5    1       3.011510      8.426570      1.720270     0.000065    0.103658   -0.016254
             6    2       3.011510      5.902700      2.118140    -0.001353   -0.149115    0.022189
             7    2       1.505750      6.931360      0.431640     0.001090    0.155776   -0.023470
 Energy
        -30.479990110000
 PlusStress:  xx          yy          zz          yz          xz          xy
        -0.75867    -0.73425    -0.75768    -0.00608    -0.00188    -0.00279
END_CFG

BEGIN_CFG
 Size
    7
 Supercell
         2.965540      0.000000      0.000000
        -1.482730      9.722180      0.000000
         0.000010     -0.452317      2.930950
 AtomData:  id type       cartes_x      cartes_y      cartes_z           fx          fy          fz
             1    0       1.482810      9.130260      2.909410     0.000536   -0.003336   -0.000083
             2    0       1.482800      3.983160      2.115070     0.000268    0.002948    0.000851
             3    1       1.482790      1.099460      1.670050    -0.000950    0.007897    0.000367
             4    1       0.000000      2.744110      0.423490    -0.000596   -0.007469   -0.001867
             5    2       0.000030      5.461080      0.842790     0.000922    0.031579    0.005730
             6    2       1.482800      6.556710      2.512240     0.000094    0.000008    0.000078
             7    2       0.000040      8.104660      1.250750    -0.000274   -0.031625   -0.005077
 Energy
        -33.309764130000
 PlusStress:  xx          yy          zz          yz          xz          xy
        -0.76143    -1.32439    -0.77459    -0.08686     0.00251    -0.00049
END_CFG

BEGIN_CFG
 Size
    5
 Supercell
         3.030480      0.000000      0.000000
         0.000029      3.030400      0.000000
         1.515230      1.515180      7.035240
 AtomData:  id type       cartes_x      cartes_y      cartes_z           fx          fy          fz
             1    0       1.515230      1.515180      6.904820    -0.000130   -0.000098    0.025409
             2    0       1.515240      1.515190      1.537470     0.000298    0.000302   -0.023834
             3    0       1.515240      1.515190      4.221150     0.000064    0.000077   -0.000726
             4    2       3.030490      3.030390      2.740200     0.000245    0.000218    0.166884
             5    2       3.030490      3.030390      5.702090    -0.000476   -0.000500   -0.167733
 Energy
        -24.733638520000
 PlusStress:  xx          yy          zz          yz          xz          xy