BEGIN_CFG
 Size
    33
 Supercell
         7.978500      0.000000      0.000000
         0.000000      7.857000     -0.121500
         0.000000     -0.121500      7.857000
 AtomData:  id type       cartes_x      cartes_y      cartes_z           fx          fy          fz
             1    0       2.060543      3.913820      5.723374     1.203502   -0.918205   -0.572242
             2    0       4.221167     -0.037529      3.980100     0.065611   -0.613957   -0.206179
             3    0       0.141486     -0.062007      3.885887     0.476971    0.122884    0.012999
             4    0       4.156846      3.850485      3.716782     0.634345   -0.167724    0.434989
             5    0       4.187987      3.972103     -0.188613     0.762227    0.702267    0.212529
             6    0       1.398549      0.161926     -0.017091    -1.446110   -0.852184   -0.104096
             7    0       6.248544      5.670055      3.661314     0.069209    0.313940    1.036460
             8    0       0.342000      1.948530      1.729148    -1.080698   -0.384165    0.605528
             9    0       6.047065      5.763510     -0.216042     0.004620   -0.758933    0.564779
            10    0       6.217527      3.877658      5.774197     0.636752   -0.654042   -1.552163
            11    0       0.314263      1.744363      6.049314    -0.593686   -0.006243   -1.284028
            12    0       2.204940      1.823982      3.812615    -0.468775    1.420263    0.227323
            13    0       0.293511      3.704389      3.762351    -0.833384    0.531054   -0.018627
            14    0       4.291357      5.670382      5.677329    -1.069096    0.596157   -0.398765
            15    1       2.334142      5.818595     -0.189769    -0.448682   -1.751608   -0.373076
            16    1       0.214899      4.011559     -0.226935     0.275511    0.233008    1.210882
            17    1       6.085900     -0.180380      5.730522     0.135382    0.642352   -1.570441
            18    1       0.183922      5.965006      1.633962     0.286640    0.263846    0.224284
            19    1       4.090433      2.008196      5.737774     0.823366   -0.493349    0.668385
            20    1       4.093118      5.779640      1.745885     1.847512    0.768754    0.771962
            21    1      -0.938526      0.109039      0.071282     1.005201   -1.412304    1.525725
            22    1       2.221243      3.933860      1.845976    -0.667009    0.672384    0.413485
            23    1       6.132459      1.921341      3.925518     0.646952    0.518693   -0.164182
            24    1       4.155038      0.026359     -0.113974     0.494152    0.296762    0.280162
            25    1       2.384859     -0.093163      5.635047    -0.920570   -0.878385   -0.293774
            26    1       2.310927      5.773391      3.740893    -1.641765   -0.243850    0.730649
            27    1       6.079668      2.228117     -0.146978    -0.999048    1.563315   -0.274781
            28    1       4.263588      1.900739      1.931556    -0.138502    0.144825   -0.766943
            29    1       0.246204      5.785718      5.629943    -0.052131    1.392766    0.779711
            30    1       2.409761      2.281202      0.002901     0.375687    0.574300   -1.137614
            31    1       5.969366     -0.063413      2.254185     0.768654   -0.444264   -1.168068
            32    1       2.337146     -0.145003      2.193334     0.219290   -0.108650   -0.018231
            33    1       6.302365      3.955789      1.773719    -0.372127   -1.069708    0.203358
 Energy
       -140.924025480000
 PlusStress:  xx          yy          zz          yz          xz          xy
        83.99790    96.85978    94.71895    -1.20002    -0.46531    10.42475
 Feature   FCC	interst
END_CFG

