BEGIN_CFG
 Size
    3
 Supercell
         2.170250      0.000000      0.000000
         0.983597      2.698550      0.000000
        -0.789782     -0.760787      3.376940
 AtomData:  id type       cartes_x      cartes_y      cartes_z
             1    0       0.895630      1.509930      3.281980
             2    0       1.811280      1.267320      0.277990
             3    0       0.695380     -0.397700      3.134760
END_CFG

