BEGIN_CFG
 Size
    12
 Supercell
         5.000000      0.000000      0.000000
         0.000000      5.000000      0.000000
         0.000000      0.000000      5.000000
 AtomData:  id type       cartes_x      cartes_y      cartes_z    
             1    6       0.0000000      0.0000000      0.0000000    
             2    19      2.5000000      2.5000000      0.0000000    
             3    6       2.5000000      0.0000000      2.5000000    
             4    6       0.0000000      2.5000000      2.5000000    
             5    19      1.2500000      1.2500000      1.2500000    
             6    19      1.2500000      1.2500000      3.7500000    
             7    19      3.7500000      3.7500000      1.2500000    
             8    19      3.7500000      3.7500000      3.7500000    
             9    3       3.7500000      1.2500000      3.7500000    
            10    3       3.7500000      1.2500000      1.2500000    
            11    3       1.2500000      3.7500000      3.7500000    
            12    6       1.2500000      3.7500000      1.2500000    
END_CFG

