BEGIN_CFG
 Size
    24
 Supercell
         6.266830      0.000000      0.000000
        -3.133410      5.427230      0.000000
         0.000000      0.000000      5.349160
 AtomData:  id type       cartes_x      cartes_y      cartes_z           fx          fy          fz
             1    0       3.383430      0.000000      0.000000     3.566566   -0.000020    0.000000
             2    0       4.575110      2.930140      0.000000    -1.783341    3.088551   -0.000000
             3    0       1.441700      2.497090      0.000000    -1.783585   -3.088399    0.000002
             4    0       3.172580      1.003470      4.397330    -3.094072   -5.664355   -4.732611
             5    0       3.811500      2.245800      4.397330     6.453005    0.152753   -4.732484
             6    0       2.416160      2.177960      4.397330    -3.358892    5.511785   -4.732547
             7    0       0.039160      4.423760      0.951830    -3.094205    5.664722    4.732599
             8    0      -0.717260      3.249270      0.951830    -3.358287   -5.511990    4.732449
             9    0       0.678090      3.181440      0.951830     6.452857   -0.152840    4.732293
            10    0       2.416160      2.177960      0.951830    -3.358893    5.511785    4.732547
            11    0       3.172580      1.003470      0.951830    -3.094073   -5.664355    4.732611
            12    0       3.811500      2.245800      0.951830     6.453005    0.152755    4.732485
            13    0       0.678090      3.181440      4.397330     6.452856   -0.152839   -4.732293
            14    0       0.039160      4.423760      4.397330    -3.094204    5.664721   -4.732600
            15    0      -0.717260      3.249270      4.397330    -3.358285   -5.511990   -4.732449
            16    0       4.145950      0.000000      1.440370     4.395082   -0.000136    1.954716
            17    0      -2.072970      3.590500      1.440370    -2.197749    3.806270    1.954804
            18    0       1.060440      1.836740      1.440370    -2.197593   -3.806310    1.954828
            19    0       4.145950      0.000000      3.908790     4.395082   -0.000136   -1.954716
            20    0      -2.072970      3.590500      3.908790    -2.197749    3.806271   -1.954804
            21    0       1.060440      1.836740      3.908790    -2.197595   -3.806311   -1.954828
            22    0       5.053260      0.000000      2.674580     4.821471   -0.000047    0.000000
            23    0       3.740200      4.376250      2.674580    -2.410740    4.175551   -0.000001
            24    0       0.606790      1.050980      2.674580    -2.410662   -4.175437   -0.000000
 Energy
       -109.093292630000
 PlusStress:  xx          yy          zz          yz          xz          xy
       136.51726   136.51577   116.76130    -0.00000     0.00000    -0.00053
END_CFG

