BEGIN_CFG
 Size
    8
 Supercell
         3.956132      0.000000     -0.000000
         0.000000      3.956134     -0.000001
        -0.000000     -0.000001      3.956133
 AtomData:  id type       cartes_x      cartes_y      cartes_z           fx          fy          fz
             1    0       0.989030      0.989030      0.989030    -0.000006   -0.000002   -0.000016
             2    0       2.967100      2.967100      0.989030     0.000018   -0.000002   -0.000008
             3    0       2.967100      0.989030      2.967100     0.000008    0.000020    0.000014
             4    0       0.989030      2.967100      2.967100     0.000012   -0.000012    0.000018
             5    0      -0.000000     -0.000000     -0.000000     0.000032    0.000019   -0.000001
             6    0       1.978070      1.978070     -0.000000    -0.000041   -0.000017   -0.000024
             7    0       1.978070     -0.000000      1.978070    -0.000044    0.000018    0.000010
             8    0       0.000000      1.978070      1.978070     0.000021   -0.000024    0.000007
 Energy
        -68.006828600000
 PlusStress:  xx          yy          zz          yz          xz          xy
       -28.62534   -28.62548   -28.62536     0.00006     0.00002     0.00000
 Feature   EFS_by	VASP
END_CFG

BEGIN_CFG
 Size
    8
 Supercell
         3.448017      0.000000     -0.000001
         0.000000      3.448021     -0.000002
        -0.000001     -0.000002      3.448019
 AtomData:  id type       cartes_x      cartes_y      cartes_z           fx          fy          fz
             1    0       0.862000      0.862000      0.862000     0.000043   -0.000031   -0.000004
             2    0       2.586010      2.586020      0.862000     0.000028    0.000053    0.000034
             3    0       2.586010      0.862000      2.586010     0.000081    0.000004   -0.000036
             4    0       0.862000      2.586010      2.586010     0.000072    0.000041    0.000008
             5    0      -0.000000     -0.000000     -0.000000     0.000008    0.000016    0.000012
             6    0       1.724010      1.724010     -0.000000    -0.000114    0.000002    0.000013
             7    0       1.724010     -0.000000      1.724010    -0.000081   -0.000011   -0.000031
             8    0       0.000000      1.724010      1.724010    -0.000037   -0.000074    0.000005
 Energy
        -72.101737680000
 PlusStress:  xx          yy          zz          yz          xz          xy
        14.32833    14.32807    14.32832     0.00022     0.00008    -0.00002
 Feature   EFS_by	VASP
END_CFG

BEGIN_CFG
 Size
    8
 Supercell
         3.617512      0.000000     -0.000001
         0.000000      3.617515     -0.000001
        -0.000001     -0.000001      3.617513
 AtomData:  id type       cartes_x      cartes_y      cartes_z           fx          fy          fz
             1    0       0.904380      0.904380      0.904380     0.000045   -0.000014   -0.000000
             2    0       2.713130      2.713140      0.904380    -0.000017    0.000027    0.000042
             3    0       2.713130      0.904380      2.713130     0.000029   -0.000005   -0.000027
             4    0       0.904380      2.713130      2.713130     0.000071    0.000031   -0.000009
             5    0      -0.000000     -0.000000     -0.000000    -0.000023   -0.000012    0.000008
             6    0       1.808760      1.808760     -0.000000    -0.000036    0.000022    0.000014
             7    0       1.808760     -0.000000      1.808760    -0.000016   -0.000036   -0.000009
             8    0       0.000000      1.808760      1.808760    -0.000053   -0.000013   -0.000017
 Energy
        -72.755128970000
 PlusStress:  xx          yy          zz          yz          xz          xy
        -4.48765    -4.48794    -4.48775     0.00015     0.00008    -0.00001
 Feature   EFS_by	VASP
END_CFG

BEGIN_CFG
 Size
    8
 Supercell
         3.577086      0.000000     -0.000001
         0.000000      3.577089     -0.000002
        -0.000001     -0.000002      3.577087
 AtomData:  id type       cartes_x      cartes_y      cartes_z           fx          fy          fz
             1    0       0.894270      0.894270      0.894270     0.000031   -0.000009   -0.000006
             2    0       2.682810      2.682820      0.894270     0.000005    0.000018    0.000015
             3    0       2.682810      0.894270      2.682820     0.000050    0.000004   -0.000026
             4    0       0.894270      2.682820      2.682810     0.000052    0.000024    0.000014
             5    0      -0.000000     -0.000000     -0.000000     0.000001    0.000006    0.000008
             6    0       1.788540      1.788540     -0.000000    -0.000069    0.000014    0.000012
             7    0       1.788540     -0.000000      1.788540    -0.000042   -0.000010   -0.000021
             8    0       0.000000      1.788540      1.788540    -0.000030   -0.000047    0.000005
 Energy
        -72.840540660000
 PlusStress:  xx          yy          zz          yz          xz          xy
        -0.40834    -0.40853    -0.40833     0.00015     0.00007    -0.00002
 Feature   EFS_by	VASP
END_CFG

BEGIN_CFG
 Size
    22
 Supercell
        23.529800      0.000000      0.000000
         0.000000     23.529800      0.000000
         0.000000      0.000000     19.386000
 AtomData:  id type       cartes_x      cartes_y      cartes_z           fx          fy          fz
             1    0       0.000000      0.000000      0.000000     0.197324   -0.235993    1.166491
             2    0       0.000000     19.264920      0.000000     1.322238    3.116149    0.161402
             3    0       2.132440     21.397360      0.000000     5.826738    6.008496   -0.183784
             4    0       4.264880      0.000000      0.000000    -4.625085   -3.495713    0.286901
             5    0       0.898540     21.075420      0.330930     3.689112   -5.935538   -2.577546
             6    0      22.565110     21.495750      0.581090    -2.890711    0.908258    0.441025
             7    0       0.182200     21.755060      1.196670    -3.518802    4.467582    1.766915
             8    0       3.130660     22.606270      0.068960    -0.275547   -2.494464   -0.859279
             9    0       1.681230      0.273560      4.204180    -0.299850   -0.036506   -0.192817
            10    0       2.865430      0.507320      3.782770    -0.190711   -0.047177   -0.026862
            11    0      21.397360     21.397360      0.000000    -4.461859   -6.186118   -0.559725
            12    0      19.264920      0.000000      0.000000     3.930130    4.559612    0.326775
            13    0      20.420200     20.175630     19.204200     4.409654    5.681213    0.628778
            14    0      21.561480     23.055110      4.150830     0.532741    0.070326   -0.127222
            15    0      20.206070      1.095420      0.077860     1.277354    0.172576   -0.979017
            16    0       0.000000      4.264880      0.000000    -0.048722   -1.754456    0.415191
            17    0       2.132440      2.132440      0.000000     3.964808    6.087678   -0.126043
            18    0      22.655570      2.089480      0.437570    -4.482786   -0.070233   -1.998138
            19    0       0.006820      2.150970      1.437810     0.403626    0.455995    3.286539
            20    0       3.141250      3.378710      0.139740    -4.563906   -5.998642   -0.845294
            21    0       0.845190      2.061700      0.409830     3.978202   -0.247345   -0.357747
            22    0      21.397360      2.132440      0.000000    -4.173949   -5.025699    0.353457
 Energy
       -121.278866280000
 PlusStress:  xx          yy          zz          yz          xz          xy
       -19.86547   -49.96691     3.33287     2.37692    -5.57279   -35.43722
 Feature   EFS_by	VASP
END_CFG

