BEGIN_CFG
 Size
    3
 Supercell
         3.880400      0.463172      0.616444
        -0.392812      3.888150      0.616444
        -0.392812     -0.490095      3.906090
 AtomData:  id type       cartes_x      cartes_y      cartes_z           fx          fy          fz
             1   29       0.515980      0.643710      0.856520    -0.262398   -0.327562   -0.434868
             2   29       2.578700      3.216790      4.281790     0.232450    0.292125    0.386574
             3   46       1.547460      1.931360      2.570070     0.029948    0.035436    0.048294
 Energy
         -2.421166343812
 PlusStress:  xx          yy          zz          yz          xz          xy
         1.68667    -0.23982    -4.39449    -7.16938    -5.74614    -4.31754
 Feature   EFS_by	VASP
END_CFG

BEGIN_CFG
 Size
    3
 Supercell
         4.773720      0.000000      0.000000
         0.000000      3.376210      0.000000
         0.000000      0.000000      4.114730
 AtomData:  id type       cartes_x      cartes_y      cartes_z           fx          fy          fz
             1   29       2.386880      0.000000      2.338990    -0.000383   -0.000000   -0.242991
             2   46       1.190040      0.000000      0.284940     1.328787    0.000000    0.121497
             3   46       3.583720      0.000000      0.284940    -1.328404    0.000000    0.121492
 Energy
         -4.298569656188
 PlusStress:  xx          yy          zz          yz          xz          xy
        -6.87816     3.89670   -12.34362     0.00000     0.00002    -0.00000
 Feature   EFS_by	VASP
END_CFG

BEGIN_CFG
 Size
    3
 Supercell
         4.658640      0.000000      0.000000
        -2.329320      4.034500      0.000000
         0.000000      0.000000      2.470840
 AtomData:  id type       cartes_x      cartes_y      cartes_z           fx          fy          fz
             1   46       2.329600      0.000500      0.000300     0.000189    0.000694    0.000063
             2   46      -1.164400      2.017700      0.823900    -0.000038   -0.000475    0.000011
             3   46       1.164900      2.017700      1.647500    -0.000151   -0.000219   -0.000073
 Energy
         -0.898319403400
 PlusStress:  xx          yy          zz          yz          xz          xy
        14.74938    14.74116    17.20829    -0.00038    -0.00084    -0.00602
 Feature   EFS_by	VASP
END_CFG

BEGIN_CFG
 Size
    3
 Supercell
         4.118270     -0.000656      0.000000
        -2.057500      3.564370      0.000000
         0.000000      0.000000      3.489780
 AtomData:  id type       cartes_x      cartes_y      cartes_z           fx          fy          fz
             1   29       2.060280      1.188470      1.744940     0.014067   -0.005462    0.002311
             2   29       0.000930      2.375990      1.745560    -0.014102    0.005446   -0.002338
             3   29       0.000240      0.000480      0.000400     0.000035    0.000016    0.000027
 Energy
          0.819046227460
 PlusStress:  xx          yy          zz          yz          xz          xy
        -0.90968    -0.89938    10.52767     0.00001    -0.00001    -0.02484
 Feature   EFS_by	VASP
END_CFG

BEGIN_CFG
 Size
    3
 Supercell
         3.775090      0.000000      0.000000
        -1.887550      3.269320      0.000000
         0.000000      0.000000      2.924160
 AtomData:  id type       cartes_x      cartes_y      cartes_z           fx          fy          fz
             1   29       0.000200      0.000400      0.000400    -0.001828    0.000611    0.000771
             2   29       1.887800      1.090200      0.975100     0.003356    0.003038    0.000753
             3   29       0.000200      2.179900      1.949800    -0.001529   -0.003649   -0.001523
 Energy
          4.289682533053
 PlusStress:  xx          yy          zz          yz          xz          xy
        -5.46947    -5.46971    11.77683     0.00013    -0.00016    -0.00015
 Feature   EFS_by	VASP
END_CFG

BEGIN_CFG
 Size
    2
 Supercell
         3.653410      0.000000      0.000000
        -1.826710      3.163950      0.000000
         0.000000      0.000000      4.754240
 AtomData:  id type       cartes_x      cartes_y      cartes_z           fx          fy          fz
             1   46       0.000000      0.000000      0.000300     0.000000   -0.000000    0.021646
             2   46       0.000000      0.000000      2.376910    -0.000000    0.000000   -0.021646
 Energy
         -4.063104035744
 PlusStress:  xx          yy          zz          yz          xz          xy
         1.01735     1.01738    -6.56433    -0.00000    -0.00000     0.00001
 Feature   EFS_by	VASP
END_CFG

BEGIN_CFG
 Size
    2
 Supercell
         3.150480      0.006180      0.000003
        -0.916912      3.129450      0.000000
         0.000003      0.000000      3.248780
 AtomData:  id type       cartes_x      cartes_y      cartes_z           fx          fy          fz
             1   29       1.780560      1.657080      1.624380    -2.463708   -0.594268    0.000469
             2   46       0.739510      3.044720      3.248760     2.463708    0.594268   -0.000469
 Energy
         -1.331057454496
 PlusStress:  xx          yy          zz          yz          xz          xy
         5.50593    -3.04124    -3.02006     0.00003     0.00029     2.66213
 Feature   EFS_by	VASP
END_CFG

BEGIN_CFG
 Size
    1
 Supercell
         2.380680      0.000000      0.000000
        -1.190340      2.061730      0.000000
         0.000000      0.000000      2.450600
 AtomData:  id type       cartes_x      cartes_y      cartes_z           fx          fy          fz
             1   29       0.000000      0.000000      1.437800     0.000000    0.000000    0.000205
 Energy
          1.165118772949
 PlusStress:  xx          yy          zz          yz          xz          xy
        -4.88388    -4.88383     1.80152     0.00000    -0.00000     0.00002
 Feature   EFS_by	VASP
END_CFG

BEGIN_CFG
 Size
    1
 Supercell
         2.492240      0.000000      0.000000
         0.000000      2.492240      0.000000
         0.000000      0.000000      2.492240
 AtomData:  id type       cartes_x      cartes_y      cartes_z           fx          fy          fz
             1   46       0.000300      0.000300      0.000300    -0.000001   -0.000001    0.000000
 Energy
         -0.575413843992
 PlusStress:  xx          yy          zz          yz          xz          xy
         4.26804     4.26804     4.26804     0.00000     0.00000    -0.00000
 Feature   EFS_by	VASP
END_CFG

BEGIN_CFG
 Size
    1
 Supercell
         2.499940      0.000000      0.000000
         0.833315      2.356970      0.000000
         0.833315     -1.178490      2.041200
 AtomData:  id type       cartes_x      cartes_y      cartes_z           fx          fy          fz
             1   29       0.000000      0.000000      0.000000     0.000000    0.000000   -0.000000
 Energy
          1.995003175598
 PlusStress:  xx          yy          zz          yz          xz          xy
         3.37088     3.37099     3.37103    -0.00005     0.00003    -0.00002
 Feature   EFS_by	VASP
END_CFG

BEGIN_CFG
 Size
    2
 Supercell
         3.770980      0.000000      0.000000
        -1.885490      3.265760      0.000000
         0.000000      0.000000      2.513980
 AtomData:  id type       cartes_x      cartes_y      cartes_z           fx          fy          fz
             1   46       0.000200      2.177600      0.628800    -0.000146    0.001642   -0.000060
             2   46       1.885700      1.088900      1.885800     0.000146   -0.001642    0.000060
 Energy
         -0.490272510972
 PlusStress:  xx          yy          zz          yz          xz          xy
        10.93154    10.92882    13.44930     0.00000    -0.00000    -0.00011
 Feature   EFS_by	VASP
END_CFG

BEGIN_CFG
 Size
    2
 Supercell
         2.797440      0.000000      0.000000
        -1.398720      2.422660      0.000000
         0.000000      0.000000      4.568230
 AtomData:  id type       cartes_x      cartes_y      cartes_z           fx          fy          fz
             1   46       0.000200      1.615400      1.142600    -0.000012   -0.000023   -0.000121
             2   46       1.398900      0.807800      3.426700     0.000012    0.000023    0.000121
 Energy
         -1.547414979832
 PlusStress:  xx          yy          zz          yz          xz          xy
        12.34828    12.34853    12.87929    -0.00000    -0.00000    -0.00004
 Feature   EFS_by	VASP
END_CFG

BEGIN_CFG
 Size
    3
 Supercell
         2.883550      0.000000      0.000000
         1.819180      2.830730      0.000000
         0.000000      0.000000      7.199750
 AtomData:  id type       cartes_x      cartes_y      cartes_z           fx          fy          fz
             1   46       0.909660      1.415330      5.279610    -0.000395    0.000249    0.686419
             2   46       0.909660      1.415330      1.920150    -0.000395    0.000248   -0.685594
             3   46       2.883490      0.000050      3.599880     0.000790   -0.000496   -0.000825
 Energy
         -3.562617459043
 PlusStress:  xx          yy          zz          yz          xz          xy
        13.21625     8.18292     2.73569    -0.00000     0.00000    -4.61971
 Feature   EFS_by	VASP
END_CFG

BEGIN_CFG
 Size
    4
 Supercell
         3.956170      0.000000      0.000000
         0.000000      3.956170      0.000000
         0.000000      0.000000      3.956170
 AtomData:  id type       cartes_x      cartes_y      cartes_z           fx          fy          fz
             1   46       1.483600      1.483600      1.483600     0.001407    0.001499    0.001341
             2   46       3.461600      0.494500      2.472600    -0.001424   -0.000409    0.000435
             3   46       2.472600      3.461600      0.494500     0.000354   -0.001505   -0.000407
             4   46       0.494500      2.472600      3.461600    -0.000337    0.000416   -0.001369
 Energy
         -2.654753164729
 PlusStress:  xx          yy          zz          yz          xz          xy
        10.03084    10.03082    10.03082     0.00152     0.00029     0.00013
 Feature   EFS_by	VASP
END_CFG

BEGIN_CFG
 Size
    2
 Supercell
         3.172500      0.027643      0.029543
        -0.169875      3.168070      0.029542
        -0.169875     -0.180800      3.163040
 AtomData:  id type       cartes_x      cartes_y      cartes_z           fx          fy          fz
             1   46       0.642290      0.683590      0.730560    -0.919120   -0.978067   -1.045258
             2   46       2.190430      2.331340      2.491570     0.919120    0.978067    1.045258
 Energy
         -2.016782496533
 PlusStress:  xx          yy          zz          yz          xz          xy
         9.79901     9.62387     9.41132    -1.59785    -1.50133    -1.40478
 Feature   EFS_by	VASP
END_CFG

BEGIN_CFG
 Size
    3
 Supercell
         3.874480      0.000000      0.000000
         1.734370      3.464620      0.000000
         0.405740     -2.142660      3.202500
 AtomData:  id type       cartes_x      cartes_y      cartes_z           fx          fy          fz
             1   29       3.874470      2.393320      1.601200    -0.001009    0.002710   -0.002140
             2   46       4.077400      0.125300      2.401900     0.000785   -0.000714    0.000972
             3   46       1.937200      1.196600      0.800600     0.000225   -0.001996    0.001169
 Energy
         -0.481630109155
 PlusStress:  xx          yy          zz          yz          xz          xy
         5.95795     5.33638     5.80431    -0.57473    -0.93098     0.62863
 Feature   EFS_by	VASP
END_CFG

BEGIN_CFG
 Size
    3
 Supercell
         4.117620      0.000003      0.000000
        -2.058810      3.565970      0.000000
         0.000000      0.000000      5.283620
 AtomData:  id type       cartes_x      cartes_y      cartes_z           fx          fy          fz
             1   46       1.371780      0.000810      5.178800    -0.070640    0.077853    0.000000
             2   46       3.430980      1.187640      5.178800    -0.032069   -0.100940   -0.000000
             3   46       1.373550      2.377560      5.178800     0.102709    0.023086    0.000000
 Energy
         -3.951421900513
 PlusStress:  xx          yy          zz          yz          xz          xy
        -4.68874    -4.68828    -0.07884     0.00000     0.00000     0.00007
 Feature   EFS_by	VASP
END_CFG

BEGIN_CFG
 Size
    3
 Supercell
         2.654240      0.000000      0.000000
         0.000000      2.654240      0.000000
         0.000000      0.000000      6.977880
 AtomData:  id type       cartes_x      cartes_y      cartes_z           fx          fy          fz
             1   29       1.327120      1.327120      3.488950    -0.000000    0.000001   -0.001034
             2   46       0.000000      0.000000      2.029570     0.000000    0.000000    2.097160
             3   46       0.000000      0.000000      4.948330     0.000000   -0.000001   -2.096126
 Energy
          0.567602663082
 PlusStress:  xx          yy          zz          yz          xz          xy
         5.28739     5.28739    -5.74502     0.00000    -0.00000     0.00000
 Feature   EFS_by	VASP
END_CFG

BEGIN_CFG
 Size
    3
 Supercell
         3.881660      0.000008      0.000001
        -1.940800      3.361600      0.000002
         0.000018     -2.241090      3.169370
 AtomData:  id type       cartes_x      cartes_y      cartes_z           fx          fy          fz
             1   29      -0.000010      2.240940      1.584700    -0.009678   -0.012622    0.000820
             2   29       0.000100      0.000050      2.377050     0.005389    0.006569   -0.000331
             3   46       1.940930      1.120590      0.792360     0.004289    0.006053   -0.000488
 Energy
          0.516235532892
 PlusStress:  xx          yy          zz          yz          xz          xy
        -1.56295    -1.56128    -1.56783    -0.00096    -0.00656     0.00174
 Feature   EFS_by	VASP
END_CFG

BEGIN_CFG
 Size
    3
 Supercell
         4.115940      0.000000      0.000000
        -2.057970      3.564510      0.000000
         0.000000      0.000000      3.215050
 AtomData:  id type       cartes_x      cartes_y      cartes_z           fx          fy          fz
             1   46      -0.000000      0.000010      0.000000     0.000331   -0.000331   -0.000000
             2   46      -0.000000      2.376350      0.000000     0.000331   -0.000281    0.000000
             3   46       2.057960      1.188190      0.000000    -0.000663    0.000613   -0.000000
 Energy
         -1.714984625501
 PlusStress:  xx          yy          zz          yz          xz          xy
         0.63909     0.63919     7.53580    -0.00000     0.00000     0.00001
 Feature   EFS_by	VASP
END_CFG

BEGIN_CFG
 Size
    4
 Supercell
         3.650270      0.000000      0.000000
        -1.825130      3.161220      0.000000
         0.000000      0.000000      4.768610
 AtomData:  id type       cartes_x      cartes_y      cartes_z           fx          fy          fz
             1   29      -0.000000      2.107500      1.192200    -0.000230    0.000601    0.001239
             2   29       1.825100      1.053700      3.576500    -0.001304   -0.001365    0.001044
             3   46       0.000000      0.000000      0.000000     0.000767    0.000382   -0.001324
             4   46       0.000000      0.000000      2.384300     0.000767    0.000382   -0.000960
 Energy
          1.506959759084
 PlusStress:  xx          yy          zz          yz          xz          xy
         4.08264     4.08736     6.98317     0.00000     0.00000    -0.00128
 Feature   EFS_by	VASP
END_CFG

BEGIN_CFG
 Size
    3
 Supercell
         4.120950      0.000579      0.000000
        -2.061360      3.570350      0.000000
         0.000000      0.000000      2.803800
 AtomData:  id type       cartes_x      cartes_y      cartes_z           fx          fy          fz
             1   29      -0.000650      2.378530      1.891900    -0.010341   -0.172120   -0.021051
             2   29       2.060240      1.192410      1.891900     0.010342    0.172118   -0.021063
             3   46       0.000000      0.000000      0.385800    -0.000001    0.000002    0.042114
 Energy
          1.438285218349
 PlusStress:  xx          yy          zz          yz          xz          xy
         4.78422     5.20982    17.58779    -0.00002    -0.00000    -0.01066
 Feature   EFS_by	VASP
END_CFG

BEGIN_CFG
 Size
    3
 Supercell
         2.879100      0.000000      0.000000
         0.000000      2.879100      0.000000
         0.000000      0.000000      5.135960
 AtomData:  id type       cartes_x      cartes_y      cartes_z           fx          fy          fz
             1   29       2.879090      2.879090      3.909980     0.000001    0.000000    4.770348
             2   29       2.879090      2.879090      1.225940     0.000001   -0.000000   -4.770335
             3   46       1.439540      1.439540      5.135940    -0.000002    0.000000   -0.000013
 Energy
          1.482903803540
 PlusStress:  xx          yy          zz          yz          xz          xy
         1.70075     1.70075    -2.86671    -0.00000     0.00000    -0.00000
 Feature   EFS_by	VASP
END_CFG

BEGIN_CFG
 Size
    5
 Supercell
         3.362150     -0.000043      0.000002
        -0.000043      3.362150      0.000002
         0.000000      0.000000      8.339460
 AtomData:  id type       cartes_x      cartes_y      cartes_z           fx          fy          fz
             1   46       0.000190      1.680890      6.634390     0.019703   -0.015750   -0.996554
             2   46       0.000200      1.680890      1.705040     0.020568   -0.016326    0.997056
             3   46       1.680890      0.000200      1.705040    -0.016325    0.020568    0.997038
             4   46       1.680890      0.000190      6.634390    -0.015749    0.019703   -0.996531
             5   46       1.681030      1.681030      8.339440    -0.008196   -0.008197   -0.001009
 Energy
         -2.526920872597
 PlusStress:  xx          yy          zz          yz          xz          xy
         7.81031     7.81132     6.56609     0.00049     0.00049    -0.00573
 Feature   EFS_by	VASP
END_CFG

BEGIN_CFG
 Size
    3
 Supercell
         3.083410      0.000000      0.000000
        -1.541700      2.670310      0.000000
         0.000000      0.000000      5.221380
 AtomData:  id type       cartes_x      cartes_y      cartes_z           fx          fy          fz
             1   29       0.000000      0.000000      0.000000     0.000130    0.000130   -0.000363
             2   46      -0.000000      1.780200      3.586700    -0.000064   -0.000099    4.556208
             3   46       1.541700      0.890100      1.634700    -0.000067   -0.000031   -4.555846
 Energy
         -0.505208103573
 PlusStress:  xx          yy          zz          yz          xz          xy
         7.81476     7.81464     3.92518     0.00008     0.00001    -0.00004
 Feature   EFS_by	VASP
END_CFG

BEGIN_CFG
 Size
    4
 Supercell
         3.880220      0.000013      0.000013
         0.000013      3.880220      0.000013
         0.000013      0.000013      3.880220
 AtomData:  id type       cartes_x      cartes_y      cartes_z           fx          fy          fz
             1   29       0.485500      0.485500      0.485500    -0.000599   -0.000418   -0.000368
             2   29       3.395630      2.425620      1.455400     0.007092   -0.000688   -0.005982
             3   29       1.455400      3.395630      2.425620    -0.005955    0.006963   -0.000803
             4   29       2.425620      1.455400      3.395630    -0.000538   -0.005857    0.007154
 Energy
          1.301173577147
 PlusStress:  xx          yy          zz          yz          xz          xy
       -14.61974   -14.61972   -14.61967    -0.00599    -0.00728    -0.00586
 Feature   EFS_by	VASP
END_CFG

BEGIN_CFG
 Size
    5
 Supercell
         4.120030     -0.000210     -0.000004
        -2.059950      3.567730     -0.000007
         0.000000     -0.000001      6.278590
 AtomData:  id type       cartes_x      cartes_y      cartes_z           fx          fy          fz
             1   29      -0.000310      2.377850      1.340320    -0.033667   -0.049115    1.188872
             2   29       2.060400      1.189730      1.340320     0.033749    0.049564    1.188853
             3   46      -0.000280      2.377850      3.733410    -0.022828   -0.034868   -0.931517
             4   46       2.060370      1.189740      3.733410     0.022832    0.034864   -0.931395
             5   46       0.000000      0.000010      0.569570    -0.000085   -0.000446   -0.514813
 Energy
         -4.148807115958
 PlusStress:  xx          yy          zz          yz          xz          xy
        -4.58305    -4.43798     0.89030     0.00035     0.00008    -0.05418
 Feature   EFS_by	VASP
END_CFG

BEGIN_CFG
 Size
    2
 Supercell
         2.937320     -0.000420     -0.000357
         0.561968      2.883060     -0.000357
         0.561968      0.462938      2.845650
 AtomData:  id type       cartes_x      cartes_y      cartes_z           fx          fy          fz
             1   29       2.030660      1.672780      1.422500     0.001033   -0.000738    0.000927
             2   29       0.561970      2.883050     -0.000350    -0.001033    0.000738   -0.000927
 Energy
          2.603769724228
 PlusStress:  xx          yy          zz          yz          xz          xy
         0.23634    -1.54787    -2.59104     3.20365     3.88895     4.57331
 Feature   EFS_by	VASP
END_CFG

BEGIN_CFG
 Size
    4
 Supercell
         3.886110     -0.000003      0.000001
        -1.943650      3.365980     -0.000001
         0.000001      0.000000      6.346960
 AtomData:  id type       cartes_x      cartes_y      cartes_z           fx          fy          fz
             1   46      -0.001000      2.243760      0.000980    -0.052832   -0.041710    0.029393
             2   46       1.943920      1.122930      3.174460     0.052639    0.041722    0.031123
             3   46       1.943930      1.123080      0.793920     0.052819    0.041459   -0.029381
             4   46      -0.001000      2.243610      3.967400    -0.052626   -0.041471   -0.031134
 Energy
         -7.067711608800
 PlusStress:  xx          yy          zz          yz          xz          xy
        -1.00908    -0.83383    -2.42715     0.00001     0.00018    -0.11112
 Feature   EFS_by	VASP
END_CFG

BEGIN_CFG
 Size
    4
 Supercell
         2.415530      0.000000      0.000000
         0.000000      2.415530      0.000000
         0.000000      0.000000      8.247100
 AtomData:  id type       cartes_x      cartes_y      cartes_z           fx          fy          fz
             1   29       0.000300      0.000300      1.209200    -0.000671    0.001170    3.559172
             2   29       1.208100      1.208000      2.916200     0.000670   -0.001170   -3.557141
             3   29       1.208100      1.208100      5.332700     0.000673    0.002512    3.557386
             4   29       0.000300      0.000200      7.039700    -0.000672   -0.002512   -3.559419
 Energy
          6.001862362778
 PlusStress:  xx          yy          zz          yz          xz          xy
        -8.03199    -8.03199    -7.08864    -0.00686    -0.00001    -0.00000
 Feature   EFS_by	VASP
END_CFG

BEGIN_CFG
 Size
    4
 Supercell
         2.974320     -0.000001     -0.000034
        -1.487150      2.575830     -0.000031
        -0.000001     -0.000001      7.944370
 AtomData:  id type       cartes_x      cartes_y      cartes_z           fx          fy          fz
             1   29       0.000000      0.000000      0.000000    -0.000005   -0.000008   -0.000075
             2   46       0.000000      1.717230      5.614880    -0.000160   -0.000068   -1.515440
             3   46       1.487140      0.858580      2.329420     0.000266    0.000359    1.515851
             4   46       1.487150      2.575810      3.972120    -0.000102   -0.000283   -0.000336
 Energy
         -1.064886527658
 PlusStress:  xx          yy          zz          yz          xz          xy
        17.29792    17.29712    10.23238    -0.00061    -0.00065     0.00030
 Feature   EFS_by	VASP
END_CFG

BEGIN_CFG
 Size
    3
 Supercell
         2.788030      0.000000     -0.000002
         0.000000      2.788030     -0.000002
         0.000000      0.000000      7.278270
 AtomData:  id type       cartes_x      cartes_y      cartes_z           fx          fy          fz
             1   46       1.394010      1.394010      0.998590     0.000125    0.000125    1.884277
             2   46       2.788020      2.788020      6.950030    -0.000003   -0.000003    0.085352
             3   46       1.394000      1.394000      5.619600    -0.000122   -0.000122   -1.969629
 Energy
          0.614093286781
 PlusStress:  xx          yy          zz          yz          xz          xy
        14.63817    14.63817     5.15957     0.00031     0.00031    -0.00000
 Feature   EFS_by	VASP
END_CFG

BEGIN_CFG
 Size
    3
 Supercell
         2.746770      0.000000      0.000000
         0.000000      2.746770      0.000000
         0.000000      0.000000      5.397990
 AtomData:  id type       cartes_x      cartes_y      cartes_z           fx          fy          fz
             1   29       0.000000      0.000000      4.209320    -0.000216   -0.000217    2.202142
             2   29       0.000000      0.000000      1.188720    -0.000216   -0.000216   -2.200348
             3   46       1.373400      1.373400      2.698970     0.000433    0.000433   -0.001793
 Energy
          2.743170516012
 PlusStress:  xx          yy          zz          yz          xz          xy
        13.61156    13.61156     1.72170     0.00000     0.00000    -0.00000
 Feature   EFS_by	VASP
END_CFG

BEGIN_CFG
 Size
    4
 Supercell
         3.371130     -0.000016      0.000000
        -0.000016      3.371130      0.000000
         0.000000      0.000000      5.501180
 AtomData:  id type       cartes_x      cartes_y      cartes_z           fx          fy          fz
             1   46       0.844880      0.844880      1.171300     0.166972    0.166972    0.000063
             2   46       2.526210      2.526210      1.171300    -0.166980   -0.166980    0.000061
             3   46       0.840660      2.530420      3.921900    -0.165429    0.165437   -0.000062
             4   46       2.530420      0.840660      3.921900     0.165438   -0.165428   -0.000062
 Energy
         -3.790148940960
 PlusStress:  xx          yy          zz          yz          xz          xy
         8.26953     8.26953    17.66108     0.00000     0.00000    -0.00232
 Feature   EFS_by	VASP
END_CFG

BEGIN_CFG
 Size
    5
 Supercell
         3.387550      0.272712      0.000042
        -0.345948      3.380870      0.000022
         0.000001      0.000000      8.704480
 AtomData:  id type       cartes_x      cartes_y      cartes_z           fx          fy          fz
             1   46       0.601900      2.591820      0.013060     1.144719   -0.952360   -2.182330
             2   46       2.439730      1.061810      0.013070    -1.143707    0.953280   -2.182899
             3   46       2.281200      2.740160      1.718890    -0.240474   -0.291610    1.806244
             4   46       0.760320      0.913370      1.718780     0.239573    0.290752    1.804600
             5   46      -0.345940      3.380860      3.797040    -0.000111   -0.000061    0.754384
 Energy
          0.867784860475
 PlusStress:  xx          yy          zz          yz          xz          xy
        17.67934    16.44480     8.47130    -0.00094    -0.00117    -3.34821
 Feature   EFS_by	VASP
END_CFG

BEGIN_CFG
 Size
    4
 Supercell
         2.840880      0.000000      0.000000
         0.000000      3.845870      0.000000
         0.000000      0.000000      6.113440
 AtomData:  id type       cartes_x      cartes_y      cartes_z           fx          fy          fz
             1   46       0.000000      1.922950      0.807690     0.000249    0.000753   -0.088415
             2   46       1.420430      0.000000      0.807690    -0.000249   -0.000753   -0.088403
             3   46       0.000000      1.922950      3.186070     0.000249    0.000753    0.088423
             4   46       1.420430      0.000000      3.186070    -0.000249   -0.000753    0.088394
 Energy
         -2.651298004483
 PlusStress:  xx          yy          zz          yz          xz          xy
        16.73050     8.78254     7.10644     0.00000    -0.00000    -0.00000
 Feature   EFS_by	VASP
END_CFG

BEGIN_CFG
 Size
    3
 Supercell
         4.285360      0.000000      0.000000
        -2.142680      3.711230      0.000000
         0.000000      0.000000      2.926360
 AtomData:  id type       cartes_x      cartes_y      cartes_z           fx          fy          fz
             1   46       2.910400      0.000000      1.062500     2.554762   -0.000337    0.000000
             2   46      -1.455150      2.520500      1.062500    -1.276754    2.212281   -0.000001
             3   46       0.687470      1.190810      1.062500    -1.278008   -2.211943    0.000001
 Energy
         -1.707372036606
 PlusStress:  xx          yy          zz          yz          xz          xy
        10.70476    10.70545    10.28036    -0.00000     0.00000     0.00013
 Feature   EFS_by	VASP
END_CFG

BEGIN_CFG
 Size
    1
 Supercell
         2.377860      0.000000      0.000000
         1.188930      2.551400      0.000000
        -1.188930      0.000000      2.551400
 AtomData:  id type       cartes_x      cartes_y      cartes_z           fx          fy          fz
             1   46       1.188900      0.000000      0.000000     0.000000    0.000000    0.000000
 Energy
         -0.698701681728
 PlusStress:  xx          yy          zz          yz          xz          xy
         2.88942     5.74396     5.74396     0.00025    -0.00679     0.00679