BEGIN_CFG
 Size
    12
 Supercell
         5.518670      0.000005      0.000005
         0.000005      5.518670      0.000005
         0.000005      0.000005      5.518670
 AtomData:  id type       cartes_x      cartes_y      cartes_z           fx          fy          fz      magmom_x     magmom_y     magmom_z
             1    0       2.247070      2.247070      2.247070     0.160864    0.160865    0.160866      1.925980     0.000000     0.000000
             2    0       3.528770      3.528770      3.528770     0.802565    0.802565    0.802565      2.010465     0.000000     0.000000
             3    0       4.791880      0.625040      3.458010    -0.940046   -0.103860    0.597971      1.936194     0.000000     0.000000
             4    0       0.554910      4.861980      2.176300    -0.299603   -0.700908   -0.033008      1.909740     0.000000     0.000000
             5    0       3.458010      4.791880      0.625040     0.597972   -0.940047   -0.103854      1.936192     0.000000     0.000000
             6    0       2.176300      0.554910      4.861980    -0.033003   -0.299612   -0.700898      1.909739     0.000000     0.000000
             7    0       0.625040      3.458010      4.791880    -0.103862    0.597965   -0.940035      1.936188     0.000000     0.000000
             8    0       4.861980      2.176300      0.554910    -0.700901   -0.033006   -0.299605      1.909738     0.000000     0.000000
             9    1       0.037350      0.037350      0.037350     0.144901    0.144915    0.144928      0.351590     0.000000     0.000000
            10    1       2.637270      2.685780      5.507740     0.110373    0.026114    0.234647      0.340942     0.000000     0.000000
            11    1       2.685780      5.507740      2.637270     0.026095    0.234634    0.110342      0.340943     0.000000     0.000000
            12    1       5.507740      2.637270      2.685780     0.234644    0.110375    0.026081      0.340942     0.000000     0.000000
 Energy
        -72.686387400000
 PlusStress:  xx          yy          zz          yz          xz          xy
         6.99203     6.99204     6.99203     0.14751     0.14753     0.14756
 Feature   COLLINEAR	YES
 Feature   EFS_by	VASP
END_CFG
