BEGIN_CFG
 Size
    108
 Supercell
        11.984153      0.000000      0.000000
         0.000000     11.984153      0.000000
         0.000000      0.000000     11.984153
 AtomData:  id type       cartes_x      cartes_y      cartes_z           fx          fy          fz
             1    0       8.928758      5.303140      4.482466    -0.304301    0.587477   -0.592146
             2    0       2.985767      7.249065      4.578066     0.599650    0.511931   -1.040866
             3    0      11.014794      9.277932      2.404988    -0.208986   -0.856056    0.571643
             4    0       6.881918      1.381236      2.573231    -0.080914   -0.516412   -0.594695
             5    0      11.058994     -0.702537      8.716220    -0.748486    0.553800    0.562923
             6    0       3.006123      3.094251      0.568249     0.047269    0.986341   -0.426654
             7    0       6.936003      9.272745      2.530052    -0.421661   -1.132074    0.464030
             8    0      10.960636      3.270787      8.527762     0.290778   -1.120930    0.395407
             9    0       5.028089      9.281338      8.715136    -1.141181   -0.059526   -0.227755
            10    0       4.929341      1.407745      4.680895     1.130559   -0.706101   -0.388410
            11    0      10.919531      5.150442     -1.378514    -0.088085    1.292151    0.019502
            12    0       6.939659      9.057930     -1.263176     0.348868   -0.093020    0.388040
            13    0       4.996718      5.163563      8.553065    -0.596910    0.335369    1.655287
            14    0       9.114535      3.143947      6.494419    -0.286086   -0.359038    0.125351
            15    0       1.189246      1.223012      4.580054    -1.245050    0.235908   -0.054606
            16    0       5.074331      3.222396      2.537957     0.096442    1.723270   -0.475572
            17    0       7.021373      3.199240      8.515579     0.002651   -0.667992    0.649812
            18    0       9.046596      9.368709      0.549512     0.077077   -1.052483   -0.571122
            19    0       1.037572      9.196060      8.515346     1.162112    0.268849    1.410160
            20    0       3.086544     -0.811348      4.743019     0.225120   -1.350769   -0.964477
            21    0       0.921006      5.106770      0.602036     0.491063    0.230519   -0.292641
            22    0       6.948618     -0.731274      0.603904    -0.377553    0.467160   -0.133749
            23    0       8.993202      3.207507     -1.434037    -1.099560   -0.077920   -0.223358
            24    0       2.972009      1.212357      2.529840     0.653393   -0.288688   -0.860405
            25    0      10.891345      5.162459      2.664545     0.570709    0.893037    0.047128
            26    0      11.019403      9.197429      6.464039    -0.705753    0.477509   -0.539196
            27    0       2.943770      1.284998     -1.420994    -0.297651   -0.406977   -0.660405
            28    0       8.905288      1.431920      4.403899     0.196313   -0.552103    0.971488
            29    0       1.021299      7.266988      6.513983     0.142685    0.585228   -0.787938
            30    0       2.972413      3.234803      4.505819    -0.172938    1.499702   -0.663722
            31    0       3.114629      1.205437      6.681306    -0.324877    0.231044    1.563319
            32    0       6.960929     -0.671131      4.503431     0.390004   -0.644374    0.449648
            33    0       7.107999      5.291465      6.388081    -0.666849   -0.094571   -0.013179
            34    0       0.924118      5.369366      8.410592     1.261745   -0.518745    1.676311
            35    0       8.848685      1.364245      0.575737    -0.346642   -0.517090   -0.586677
            36    0       1.113848     -0.632812      2.411592     0.268105   -1.205546   -0.550125
            37    0       8.981330      7.355665      6.473931    -0.383052    0.657782   -0.343312
            38    0      10.772909      3.334064      0.631073     1.010924   -0.582781   -0.442005
            39    0       8.862863      3.424260      2.519820    -1.150960    0.384509   -0.259054
            40    0       4.991071      7.283084      6.664021    -0.001624    0.705025   -0.897408
            41    0       2.837941      7.169583      0.703528     1.092855    0.494836   -0.584909
            42    0      11.036986      7.320302      8.617361    -1.135194    0.317674    1.067434
            43    0       2.960381      5.345125      6.523699     0.163059   -0.568759    0.098548
            44    0      11.017341      1.378078      2.641052     0.387361    0.493729   -0.127246
            45    0       4.942081      3.292540      6.573541     0.463269   -0.103001    0.083088
            46    0       5.030484     -0.820973     -1.382102    -0.595832    0.693437    0.111781
            47    0       1.069320     -0.682794      6.636759    -0.081601   -0.079219    0.390922
            48    0       5.106972     -0.855599      6.614221     0.453281   -0.037579    0.773494
            49    0       0.900478      7.279505      2.643631    -0.009527    0.187288    0.220401
            50    0       0.984308      3.236239      6.403673    -0.440306   -0.132016    0.523704
            51    0      10.963210     -0.789275      4.419604    -0.573928   -0.039229    0.682699
            52    0      11.002254      5.322424      6.505084    -0.374696   -0.051473   -0.824104
            53    0       7.004401      7.498213      8.557028     1.005237   -0.755305    0.316075
            54    0      10.898640     -0.573967      0.668112     0.556610    0.099181   -1.458548
            55    1       6.885013      3.231956      0.506652     0.241416    0.007998    0.268169
            56    1       5.096154      1.320879      8.463299    -0.133924   -0.081765    0.010039
            57    1       8.954835     -0.570778      2.521808    -0.021610    0.064837   -0.105863
            58    1       8.927599      5.226724      0.494056     0.113907   -0.190362    0.060415
            59    1      11.011911      3.282708      4.539702    -0.451087    0.025932    0.099143
            60    1       4.985670      5.226511      4.527438    -0.272687    0.010208    0.327955
            61    1       6.876547      1.292688     -1.387089     0.294631   -0.101810   -0.110305
            62    1       4.914641      9.299755      0.678331     0.337197   -0.015379   -0.225496
            63    1       4.960698      7.211519     -1.501828     0.222930    0.094204   -0.046254
            64    1      11.031837      1.255068      6.433027     0.125656   -0.067527    0.051246
            65    1      11.003008      7.292471      0.499711    -0.086236   -0.201719    0.358627
            66    1       9.056620      9.204510      4.419509    -0.039791    0.175548    0.166627
            67    1       7.114313     -0.780609      8.676302    -0.400512   -0.212276   -0.056157
            68    1       2.992123      9.282482      2.454316    -0.236616   -0.164529    0.284317
            69    1       6.890714      5.323094     -1.449488    -0.019362   -0.146482   -0.120089
            70    1       8.936205      5.303828      8.411528     0.147391   -0.078019   -0.126194
            71    1       7.050810      1.316478      6.515653    -0.058312   -0.024587   -0.097273
            72    1       7.075185      3.308187      4.535862     0.063573   -0.040715   -0.075413
            73    1       0.941088      7.155839     -1.407944    -0.070566   -0.193925   -0.126806
            74    1       4.860201      3.277939     -1.436909     0.077266    0.008854   -0.075950
            75    1       0.955939      1.341624      8.525557     0.038436   -0.069529   -0.158871
            76    1       4.961541      1.087875      0.412989    -0.185040    0.173990    0.275559
            77    1       2.896367      5.281662      2.649335     0.123950    0.040259   -0.235812
            78    1       3.060383      5.249726     -1.424252    -0.099690   -0.039071    0.127865
            79    1       2.900849      7.311023      8.682623     0.056656   -0.224176   -0.421488
            80    1       9.033253     -0.734352      6.519084     0.105736   -0.033683   -0.136649
            81    1       4.864492      9.203262      4.598671     0.157159    0.043635    0.057155
            82    1       4.963534     -0.762474      2.576192     0.225914    0.237991    0.219482
            83    1      11.009637      1.351135     -1.354913    -0.332968    0.039391    0.016445
            84    1       3.093065     -0.715833      8.660024     0.063882   -0.007323   -0.076796
            85    1       0.940831      9.237152      0.593145     0.113401    0.084238    0.311283
            86    1       6.967158      7.270228      0.676521    -0.012707    0.091669   -0.082422
            87    1       0.990978      3.341710     -1.469823    -0.156773    0.147709    0.122297
            88    1       2.945496      9.116423      6.691045     0.141891    0.215539   -0.143239
            89    1       0.933024      1.381770      0.649455    -0.010661   -0.210140    0.071166
            90    1       2.951640     -0.776961      0.438179     0.048899    0.158172    0.143708
            91    1       9.057827      7.396362     -1.482075    -0.099598   -0.017213    0.066063
            92    1       7.018819      7.213025      4.586440     0.058960   -0.069632    0.045074
            93    1       4.878769      7.207691      2.690859     0.079442    0.142206   -0.180354
            94    1       5.045844      5.263893      0.479249    -0.088830   -0.113040    0.145988
            95    1       0.908526      3.290174      2.634913     0.148295   -0.250693   -0.328696
            96    1       8.888267      7.270964      2.454428     0.115974    0.074846    0.054427
            97    1       0.964025      5.306929      4.414599     0.125752    0.210141    0.556009
            98    1       0.925789      9.384415      4.488448    -0.005612   -0.021712    0.008310
            99    1       2.951873      9.209576     -1.375838     0.112287    0.111960   -0.115944
           100    1       6.905909      5.259944      2.588595     0.133444   -0.034028   -0.105999
           101    1       7.038015      9.403766      6.400360    -0.098519   -0.260265    0.237803
           102    1       1.012163     -0.793647     -1.322993    -0.076615    0.070386   -0.154591
           103    1       9.074905      9.184727      8.521159     0.061636   -0.010262   -0.185382
           104    1      10.933333      7.316479      4.494217    -0.032465   -0.287788    0.149962
           105    1      11.123522      9.207104     -1.321300    -0.184396    0.213923   -0.358812
           106    1       8.991267      1.208695      8.601566     0.078084    0.278729   -0.011620
           107    1       2.773004      3.355651      8.483991     0.294727    0.089926   -0.338315
           108    1       8.944341     -0.855221     -1.420659     0.039147    0.012383    0.331749
 Energy
       -501.368033479000
 Feature   MD	Al-Ni_nodef
END_CFG

BEGIN_CFG
 Size
    108
 Supercell
        11.984153      0.000000      0.000000
         0.000000     11.984153      0.000000
         0.000000      0.000000     11.984153
 AtomData:  id type       cartes_x      cartes_y      cartes_z           fx          fy          fz
             1    0       0.916994      1.351279      8.658068     0.044256   -0.919116   -0.980978
             2    0       8.919524     -0.728984     -1.375475     0.221586   -0.388069    0.919326
             3    0       0.959676      3.231521      6.625471    -0.393584   -0.710140   -0.663507
             4    0       4.982919      5.230432      8.568447     0.058616   -0.500041    1.032772
             5    0       7.021161     -0.668986      4.507176     0.446116   -0.149989    0.349822
             6    0       0.967939     -0.682141      6.691983    -0.329662   -0.869605    0.107717
             7    0       4.919759      1.216892      0.443839     0.745850    0.638449    0.108501
             8    0       3.124637      1.298700     -1.474274     0.468697   -0.324084   -0.342825
             9    0       7.066908      5.204165      2.521030    -0.620257   -0.099644    1.636340
            10    0       0.925724      7.215658      6.712300     0.099350    1.753796   -0.078732
            11    0       3.011919      3.277201      0.489225     0.310265    0.869533    0.565664
            12    0       8.915586      9.388408      8.617263     0.902184   -0.401882   -0.973837
            13    0      10.945939      5.230341      6.592147    -1.091307    0.487686   -0.123655
            14    0      10.939021      7.238532      4.752406    -0.907772    1.420071   -0.804780
            15    0       7.011997      3.167058      8.477665    -0.346518    0.307389    0.295371
            16    0       6.875868      5.230701      6.510336     0.588489   -0.035075   -1.265923
            17    0       6.975838      7.202735      8.643083     0.046686    0.038613   -0.203939
            18    0       6.955600      7.152965      0.663003    -0.003468    1.732609   -0.149408
            19    0       0.840802      5.219026      8.572556     0.334193    0.743542    0.810722
            20    0       3.011960      7.151614      8.641118    -0.142872    0.812140    0.654608
            21    0       2.839434      3.184127      4.595544     1.562620    0.397088   -0.229065
            22    0       5.011991      5.336598      0.584143    -0.843113   -0.339835   -0.201371
            23    0       4.982204     -0.538828      2.628868     0.421733    0.183974    0.030243
            24    0      10.909848      1.170721     -1.287246    -0.132026   -0.316114    0.346291
            25    0       9.051403      3.311224      6.485751    -0.308350   -0.325460   -0.639616
            26    0       8.994146      1.297836      8.677605     0.076806   -0.782355   -1.059979
            27    0       2.931216      5.246525      6.519419     0.856545    0.035768   -0.558927
            28    0       2.962667      1.338342      2.691178     0.695429    0.238307   -0.506646
            29    0       9.066166      3.360332     -1.386530    -0.948248    0.151284    0.164507
            30    0       9.043701      1.181604      4.561257     0.476135   -0.252517   -0.108942
            31    0       8.860740      7.214147     -1.509778     1.173006    0.240222    0.399582
            32    0       0.902826      5.373534      0.500361     0.575439    0.619374    0.471427
            33    0       3.072412     -0.773394      4.687390     0.045149    0.389049    1.151705
            34    0       3.077412      3.199576      8.469309     0.433959    0.063480   -0.011795
            35    0       9.107016      3.252722      2.586924    -0.622470   -0.805065    0.442574
            36    0       6.901749     -0.660685      8.423135     0.176587   -0.313463   -0.369277
            37    0       0.937872      3.286733     -1.470848     0.324843    0.616844    0.457388
            38    0       1.073439     -0.805819      2.447924    -1.451537   -0.602253   -0.134365
            39    0       1.085884      1.270657      0.598158    -0.585386    0.134971    0.909283
            40    0       6.775425     -0.701073      0.536327     1.487731   -0.224307   -0.056699
            41    0       5.045588      1.198349      8.518545    -0.389590   -0.167610   -0.549887
            42    0       1.018478      7.357075     -1.432936    -0.538650    0.911104    0.330999
            43    0       0.985569      5.256533      4.594777     0.192584    0.243628   -1.306662
            44    0       1.208444     -0.459462     -1.342856    -0.324673   -2.707170   -0.204937
            45    0      11.046345      3.274922      0.635601    -0.096013   -0.484617    0.218404
            46    0       3.047527      9.381494      2.711723    -0.931992   -1.714793   -0.642355
            47    0       5.055192      9.260737      4.486721     0.809977   -0.915457    0.578021
            48    0       4.933562      7.244095      6.576531     0.016164    0.392024   -1.202515
            49    0      10.985719      3.313189      8.607264    -0.944122   -0.007465   -0.095655
            50    0       4.869107      9.271434      0.657335    -0.166324   -0.697757   -0.832253
            51    0       0.906902      1.236846      4.464331    -1.299510    0.015775    0.328112
            52    0      10.884770      5.388377      2.463541     0.166701    0.795563    0.672492
            53    0       8.887054      5.311848      0.504739     0.421799    0.073433   -0.200424
            54    0       4.967910      9.203985      8.540850    -0.441665    0.922415    0.498496
            55    1      10.819804      7.313099      8.619117     0.279350    0.050361   -0.157825
            56    1       3.014077      5.167127     -1.490365    -0.326317   -0.047122   -0.053703
            57    1       8.843985      9.270818      4.552311     0.080326   -0.010808    0.054143
            58    1      11.114403      9.236798      2.489992    -0.059753    0.166349    0.053760
            59    1       4.885210      7.189523     -1.311021     0.142412    0.050121   -0.130575
            60    1       6.896052      3.397862      0.600237     0.263679    0.069140    0.154292
            61    1       4.853951      5.220277      4.387092     0.195021    0.012024    0.401035
            62    1      10.952270     -0.697189      8.475771    -0.021949    0.174300    0.385048
            63    1       0.936333      9.110350      4.631652     0.025185    0.154284   -0.053431
            64    1       4.874034      3.287013      2.523486    -0.138448   -0.010799   -0.177875
            65    1       3.055648      1.144051      6.496007    -0.285122    0.219239    0.094135
            66    1       5.134309     -0.734242      6.434172    -0.017381   -0.051760    0.109554
            67    1       2.964095      7.106951      0.660877    -0.059694    0.194055   -0.022977
            68    1      10.936853      5.419649     -1.511400     0.102272   -0.433089    0.154042
            69    1       8.874626      5.123167      8.403643    -0.025543   -0.075030   -0.061554
            70    1       2.987478      7.220648      4.644929    -0.075371   -0.039072    0.142299
            71    1      10.856537      7.356153      0.471049     0.069986   -0.189851    0.068510
            72    1      11.183936      3.364752      4.473687    -0.191721    0.047150    0.276171
            73    1       6.991127      9.320878      2.453037    -0.252619    0.196455    0.070125
            74    1       6.995903      9.212553      6.694395    -0.135933    0.021595    0.041984
            75    1      10.848609      9.341179      6.602182     0.141436   -0.193156   -0.057623
            76    1       8.926683      7.263127      2.552843     0.008897   -0.167245   -0.132584
            77    1       1.063165      9.223767      0.509451    -0.139416    0.044475    0.147110
            78    1       7.059714      7.168945      4.484571    -0.237001    0.062800    0.092032
            79    1       8.992591      7.277256      6.633106    -0.097866   -0.008574   -0.061598
            80    1       6.914674      5.135762     -1.504556     0.265494    0.326420    0.024305
            81    1       2.933320      5.208952      2.661786    -0.110323   -0.017554   -0.228732
            82    1       7.217423      1.304082      6.526594    -0.021348    0.012120    0.237374
            83    1       4.993684      1.384178      4.577896    -0.165799   -0.350602   -0.366753
            84    1       2.899822      9.186177      6.616516     0.171955   -0.104665    0.068075
            85    1       4.922193     -0.772803     -1.466114     0.143558    0.211499   -0.057795
            86    1       5.036837      3.223165      6.424222    -0.130553    0.302952    0.454793
            87    1       7.070421      3.303213      4.537193     0.241070    0.080025   -0.032743
            88    1       6.860923      9.226735     -1.329279     0.188769   -0.068574   -0.106405
            89    1      10.973436      9.257403     -1.466088    -0.183604   -0.004960   -0.022269
            90    1       8.828717      1.398319      0.563385     0.365166    0.025646   -0.199605
            91    1       8.984464      5.351451      4.574565     0.098297   -0.233988    0.024018
            92    1       3.099065     -0.780249      8.511663    -0.202816    0.168165    0.201807
            93    1       5.084320      7.341039      2.543919     0.018818   -0.008240   -0.155752
            94    1       7.069691      1.252597      2.565037    -0.109943   -0.142572    0.066789
            95    1       8.987213     -0.539165      2.436235    -0.085048   -0.174537    0.210978
            96    1       6.960825      1.316519     -1.580234     0.326579   -0.341956   -0.112677
            97    1       0.985455      9.239360      8.556612     0.050264   -0.147627    0.013274
            98    1       3.024483     -0.869505      0.652787    -0.047353    0.400305    0.212577
            99    1      11.004202     -0.684705      0.571148     0.191056    0.048752   -0.101198
           100    1      10.949406      1.239242      6.495656     0.204702    0.305428    0.146228
           101    1       8.895050      9.408336      0.552945     0.004968   -0.054165   -0.090241
           102    1       1.039991      3.368117      2.421290     0.173027   -0.131998   -0.022311
           103    1       0.913206      7.356061      2.536187    -0.003011   -0.295884    0.068597
           104    1       2.989104      9.245517     -1.363487    -0.003934   -0.228969   -0.258771
           105    1      10.911866     -0.806311      4.456490     0.099394    0.110972   -0.053718
           106    1       9.043326     -0.681418      6.549593    -0.317934   -0.078876   -0.008044
           107    1      11.076889      1.302463      2.537956    -0.068528   -0.043954   -0.053836
           108    1       5.196272      3.112320     -1.526517    -0.657741    0.026750   -0.173877
 Energy
       -500.769943631000
 Feature   MD	Al-Ni_nodef
END_CFG

BEGIN_CFG
 Size
    108
 Supercell
        11.984153      0.000000      0.000000
         0.000000     11.984153      0.000000
         0.000000      0.000000     11.984153
 AtomData:  id type       cartes_x      cartes_y      cartes_z           fx          fy          fz
             1    0       3.100234      7.326502      8.551389    -0.440085    0.588242   -0.052953
             2    0      10.740346      3.341337      0.768520     1.885253   -0.037205    0.593794
             3    0       2.939230      9.298540      2.544318    -0.554325   -0.138902   -0.485736
             4    0       3.080140      3.098700      0.477009    -0.839918    0.167509   -0.222859
             5    0       6.898682      3.369260      4.585385     0.018410    0.711607   -0.277067
             6    0       1.041202      7.215660     -1.334792    -0.348521    0.254013    1.450873
             7    0       9.050042      5.416450      0.594807     0.321167    1.119974    0.662647
             8    0       7.020624      3.213864      8.493962    -0.780640   -1.202468   -0.117871
             9    0       4.962970      5.256429      0.566811     0.187638    0.031951   -0.252433
            10    0       6.894126      5.229394     -1.514384     0.207908   -0.089578    0.417962
            11    0       8.909037      5.318892      8.521182     0.585569    0.003031   -0.123958
            12    0       3.049300     -0.782946      0.604695     0.056717   -0.058977    0.237390
            13    0       1.005129      5.270749      8.545825    -0.196745   -1.538714    0.245730
            14    0       4.831434      9.106551      4.511856     0.331707    1.407059    0.445026
            15    0       1.010661      1.247379      4.504289    -0.595633    0.289335    0.071335
            16    0       1.060027      9.430770      4.559762    -0.796119   -0.287608   -0.339807
            17    0       2.991191      9.201020      6.520293     0.289721    0.566191   -0.315085
            18    0       0.813776      7.408342      6.627405     0.136832   -0.200182   -1.216898
            19    0       9.091910      9.188048      4.487935     0.325393   -0.943671    0.580926
            20    0       0.979682     -0.941584     -1.299329     0.171112    0.788474    0.380541
            21    0       6.803922      7.437099      0.427545     0.661571    0.141198   -0.121918
            22    0       8.902918      9.367332      0.529590    -0.337346   -0.485988   -0.291855
            23    0       2.946388      5.336726      2.422878    -1.396105    0.474451    0.617143
            24    0      10.890699     -0.658591      0.583663     0.802858    0.526597    0.327635
            25    0       9.059597      3.302220     -1.338265     0.555526   -0.652192   -1.315565
            26    0       7.111558      3.350229      0.608809    -0.843829   -0.389223    0.525066
            27    0      11.055190     -0.610975      8.491212    -0.467126    0.664234   -0.074789
            28    0      11.013521      5.250871      6.550713    -0.273957   -0.481299   -1.282162
            29    0       2.937570      5.313121     -1.470194    -0.345306   -1.503462    0.565278
            30    0       2.905111     -0.955164      8.485725     0.831853    0.751233    0.154444
            31    0       0.932563      9.289195      8.702202    -0.192516   -0.411690   -0.687309
            32    0       4.950701      3.360664      2.580590     0.976451    0.066585   -0.077461
            33    0       5.103580     -0.617652     -1.457841     1.170509   -0.537230   -0.166993
            34    0      10.858475      9.217723     -1.306276    -0.443122   -0.486425   -0.189350
            35    0       4.826960      7.161426     -1.457352     0.294571    1.809771    0.477103
            36    0       9.004500     -0.849489      6.482808    -1.091937    0.077207    1.218772
            37    0       8.862628      1.321163      0.735450    -0.296826   -0.715951   -0.145853
            38    0       3.082114      3.309244      4.605067    -0.593482    0.183780    0.030475
            39    0       4.955120      5.248754      8.481639    -0.061920   -1.387335   -0.261466
            40    0       7.006764      7.331828      4.657201     0.772475   -1.127273    0.112366
            41    0       3.211644      1.279288      2.630049    -0.866544   -0.926813   -0.600714
            42    0       9.098311      1.273559      4.550377    -0.322325    0.594283   -0.475636
            43    0      11.017553      7.162388      8.643016    -1.376974    0.573386    0.316189
            44    0       8.844189      3.223143      6.409777     1.010274    0.072802    0.552676
            45    0       5.050333      1.251504      4.572952     0.872822   -1.179105    0.669673
            46    0       2.970142      1.154872     -1.422567    -0.252908    0.980163   -0.793007
            47    0       4.952778      7.167866      6.503388     0.370441    0.117161   -0.332273
            48    0       4.918720      7.327817      2.481875    -0.221586   -0.548810   -0.026044
            49    0      10.922945     -0.670710      4.584333     1.250369   -0.211396   -0.165459
            50    0       2.988963      5.147068      6.459112    -0.316723   -0.117587   -0.067780
            51    0       6.934903      9.251248      2.547206    -0.449452    0.854395   -0.150396
            52    0       2.981137      1.130868      6.611674     0.071086    0.235200    0.522166
            53    0       6.914439      7.222112      8.570402     0.761246    1.462292   -0.462123
            54    0       8.935967     -0.835607      2.627306    -0.356077    0.752858   -0.145043
            55    1       6.953650      1.032351      6.604485     0.280294    0.357487   -0.239865
            56    1      10.916725      1.440752      2.534681    -0.171878   -0.311380    0.166117
            57    1       2.971104      7.387117      0.501456     0.130226   -0.445235    0.158061
            58    1       8.960628     -0.629702     -1.579418     0.230221   -0.235511    0.226951
            59    1      10.952597      1.382821     -1.470418    -0.137222   -0.150614    0.158161
            60    1       7.063736     -0.800837      4.548612     0.125424   -0.143503   -0.151379
            61    1       6.963368     -0.650119      0.552697     0.286124   -0.140906    0.098240
            62    1      11.029998      9.320702      6.621426    -0.014700    0.044591   -0.097270
            63    1       8.860587      7.410566      2.672435    -0.016238    0.039485   -0.226054
            64    1       0.943682     -0.625607      2.707696     0.089950   -0.083148   -0.109460
            65    1      10.925058      3.419441      4.553813    -0.042816   -0.100787    0.214582
            66    1      11.044780      7.214547      4.616079     0.009326    0.072050    0.061470
            67    1       3.016279      9.251406     -1.509681    -0.249319   -0.005792   -0.143689
            68    1       7.091177      9.124240      6.629878    -0.070112   -0.070439   -0.177667
            69    1       0.911661     -0.722088      6.522277     0.288241    0.014663    0.078543
            70    1       8.912256      3.550510      2.643688     0.035858   -0.266680   -0.186952
            71    1       9.101780      1.221343      8.390582    -0.194122    0.051390    0.086906
            72    1       2.904874      7.188466      4.512957     0.157819    0.364986    0.040696
            73    1      11.023725      5.297641      2.670660    -0.094521    0.006027   -0.241379
            74    1       9.041224      7.218241      6.673005     0.017055   -0.173406    0.001046