BEGIN_CFG
 Size
    108
 Supercell
        11.984153      0.000000      0.000000
         0.000000     11.984153      0.000000
         0.000000      0.000000     11.984153
 AtomData:  id type       cartes_x      cartes_y      cartes_z           fx          fy          fz
             1    0       0.972507      7.422683      6.461578    -0.735000   -1.061215   -0.356825
             2    0       8.974586      3.263701      6.532142    -0.861105    0.123042   -1.282409
             3    0       1.111454      1.371896      0.656481     0.366049   -0.280105   -0.580846
             4    0       4.923436      5.358437      8.454480     0.004225   -0.293020   -0.610288
             5    0       2.903281      7.301868      4.560122    -0.124323    0.017236   -0.043223
             6    0       9.050219     -0.573152     -1.325459     0.359775   -0.784894   -1.221237
             7    0       4.979668     -0.769265     -1.434576    -0.988255    0.490805   -0.770780
             8    0       4.913300      3.369583     -1.552610     0.763957   -1.233396    0.326261
             9    0       3.018833      3.207379      8.640830    -0.610620   -0.221852   -1.182313
            10    0       8.916018      7.218029      2.584535    -0.552958   -0.152488    0.844934
            11    0       9.055938      9.290858      0.529929    -0.308336   -0.329819   -0.499511
            12    0      10.798466      9.247148      6.518960     0.240536    1.566899   -0.347561
            13    0       9.094006      7.286532      6.719701     0.400683   -0.743570   -1.279143
            14    0       8.987504      5.267097      8.578227     0.271100    0.033623   -0.419465
            15    0       1.146532      1.174469      8.584810    -0.003769   -0.321520   -0.372901
            16    0       8.886884      7.421776     -1.501374     0.761535    0.691712    0.071790
            17    0       7.018080     -0.815615      4.495548    -0.010513    0.305263    0.516881
            18    0       2.988032      9.138883      2.573584    -0.137198   -0.077697   -0.651016
            19    0       9.033005      1.250479      8.607119     0.148053   -0.253582   -0.049431
            20    0       0.900361      7.211305     -1.338222    -0.153441    0.697752    0.796017
            21    0       2.972960      5.333375     -1.452833    -0.326386    0.480386    0.493241
            22    0       8.823732      3.340308      2.680870    -0.261524    0.232670    0.919282
            23    0       1.091816     -0.768112     -1.394058     0.464796   -0.370066    0.097095
            24    0       3.020247     -0.822780      4.588249     0.727722    0.074947    0.804890
            25    0       4.867642      7.231649      6.369548     0.468657    0.104270   -0.257386
            26    0       7.075041      9.148908      6.572958    -0.293717    0.775696   -0.762502
            27    0      10.998360      1.168052      6.382932    -0.098725   -1.038904    0.305232
            28    0       3.236649      3.418151      0.526192    -0.603657   -0.511197    0.125650
            29    0       9.108001      1.290638      0.594617    -0.339689    0.079293    0.029016
            30    0       7.026262      1.241217      2.565190    -0.544632   -0.215535    0.572327
            31    0       4.895360      9.221596      0.536123    -0.424001   -0.820278   -0.544023
            32    0       6.962275      5.305431     -1.510008    -0.404618    0.556720    0.730890
            33    0       7.081591      7.236897      8.441668    -1.151385    0.622336    0.661583
            34    0       2.949632      3.261208      4.594172     0.539133    0.100844    1.196916
            35    0      10.930332      5.291763     -1.510671     0.819060   -0.132623    0.198130
            36    0      10.921032      3.316361      8.420769     1.272862   -0.050085    0.457557
            37    0       7.083036      3.225860      8.499892    -1.072518   -0.585493   -0.196201
            38    0       5.049777      3.301555      2.636008     0.330142    0.069009    0.529992
            39    0       1.088596      3.383479      2.525905    -0.279242   -0.017093    0.009713
            40    0       6.915947     -0.692298      0.479841    -0.201623    0.462566    0.210910
            41    0      10.940083      5.288293      2.633447     0.813840    1.154800    0.289884
            42    0       0.982978      1.231163      4.438099     0.137445   -0.331368    0.603437
            43    0      10.957135      3.261728      4.566598     0.219955    0.494097    0.255675
            44    0      10.858390      3.282068      0.580224     0.930964   -0.120385   -0.470381
            45    0      11.055662     -0.679203      0.554582     0.130326   -0.259514    0.075913
            46    0       0.890663     -0.860846      2.680213     0.099564   -0.023635   -0.285705
            47    0       7.149638     -0.820825      8.549030    -0.614517    0.108799   -0.460220
            48    0       8.991703      5.336755      0.594110    -0.416523    0.419191   -0.183267
            49    0      10.721780      9.287969      2.591898     0.936624   -0.298706    1.083397
            50    0       7.035881      3.388552      0.481636    -0.502267   -0.442842   -0.047291
            51    0       6.928537      9.225217      2.336098    -0.349491   -0.294310    1.356320
            52    0       2.787155      7.363464      8.519186     1.202241   -0.120882    0.171699
            53    0       0.950921      9.223816      8.537001    -0.369869    1.304913    0.127577
            54    0       2.952932      5.426841      2.629898     0.179022    0.764641   -0.641151
            55    1       6.963019      5.345813      2.596388     0.276465   -0.271409   -0.193847
            56    1       0.946932     -0.775609      6.487151    -0.027658    0.255216   -0.057214
            57    1       8.947656      3.430844     -1.407679     0.193184    0.331772    0.070322
            58    1       4.892299      1.167341      0.664192     0.333277    0.178285    0.126421
            59    1       3.020690      1.261894     -1.293841    -0.077011    0.128554   -0.072832
            60    1       3.092208     -0.885774      8.448815    -0.256220    0.149786    0.141962
            61    1       4.879226      3.124233      6.548027     0.058421    0.130704    0.031176
            62    1       4.952373      7.267218     -1.587317    -0.011274   -0.344109   -0.206380
            63    1       6.927980      1.408306     -1.539403     0.292086   -0.145354    0.074122
            64    1      11.076300      1.294402      2.581053     0.170608    0.183579   -0.334479
            65    1       1.103738      5.222816      0.491336    -0.058415   -0.184705    0.175571
            66    1       6.849940      5.197357      6.485157     0.065284    0.063803    0.467574
            67    1       5.162109     -0.919514      6.502754     0.026876    0.134918    0.089449
            68    1       2.935615      7.265471      0.550166     0.050428    0.116210   -0.039109
            69    1       9.079683      9.396553      8.546568    -0.259574   -0.417880   -0.217618
            70    1      10.850252      7.213875      0.662152    -0.312170    0.031303   -0.013282
            71    1       0.978182      3.170584      6.749884    -0.162895   -0.263982   -0.208272
            72    1       8.855898      1.296086      4.591449     0.205347    0.242636   -0.084479
            73    1       6.904512      7.184225      4.602747     0.201796    0.042189    0.052464
            74    1      10.812529     -0.644800      4.504983     0.193353   -0.113621   -0.067344
            75    1      11.017864      5.402935      6.775335    -0.520066   -0.283107   -0.185041
            76    1       5.045047      7.162539      2.667698    -0.301281    0.232829   -0.026548
            77    1      11.073355      7.299471      8.675667    -0.153377    0.075594    0.038032
            78    1       0.844310      9.158946      0.632068    -0.052244    0.347636    0.249732
            79    1       2.911724      1.373424      2.673013    -0.161411    0.120178   -0.069207
            80    1       6.954006      7.303098      0.637090     0.395055    0.151301    0.003954
            81    1      10.916811      9.237443     -1.345176    -0.119405    0.236400    0.047431
            82    1      11.159978     -0.780260      8.623255     0.072828    0.046342    0.007582
            83    1      11.192931      1.283957     -1.526880    -0.253988   -0.272171    0.342446
            84    1       5.142845      5.483385      0.545823    -0.240149   -0.673166   -0.119230
            85    1       5.037101      9.184892      4.624341    -0.145016   -0.051834   -0.135404
            86    1       6.888531      1.155072      6.558417     0.065276    0.307914    0.195988
            87    1      10.987699      7.408024      4.594889    -0.199011   -0.063692    0.166770
            88    1       9.124140      5.483800      4.527847    -0.095474   -0.388479   -0.130956
            89    1       6.967499      3.327452      4.569524    -0.076443   -0.171720   -0.165210
            90    1       4.932076      5.160884      4.554941    -0.188443    0.037890   -0.161640
            91    1       2.903486      5.073825      6.594022     0.274598    0.355270    0.097194
            92    1       0.801131      9.348753      4.564674     0.347502   -0.124227   -0.221379
            93    1       5.070962      1.148722      4.474163     0.123179    0.074630    0.068970
            94    1       7.158761      9.271722     -1.452478    -0.139545    0.493346    0.220044
            95    1       5.041255      9.172323      8.481701     0.286939   -0.104575   -0.257190
            96    1       2.904973     -0.579107      0.708630    -0.196664   -0.318421   -0.007320
            97    1       0.997591      3.215421     -1.587948    -0.033976    0.141889    0.034689
            98    1       2.934412      9.178038      6.549513     0.033598   -0.357836    0.202426
            99    1       0.957109      5.237253      8.460814     0.293820    0.248686    0.417218
           100    1       4.942530     -0.784352      2.576671     0.227827   -0.313481   -0.060581
           101    1       8.938217     -0.641665      6.392414    -0.087938   -0.133770    0.278887
           102    1       3.050535      1.196796      6.556747    -0.047390   -0.001922    0.002524
           103    1       8.939012     -0.690034      2.443927    -0.203913   -0.156505   -0.275312
           104    1       3.015329      9.309027     -1.455120    -0.081616   -0.001930   -0.178446
           105    1       4.879086      1.175817      8.611812     0.120053    0.081049   -0.068146
           106    1       0.828539      5.277272      4.612356     0.154182   -0.149532   -0.341770
           107    1       8.902769      9.214985      4.550633    -0.160305   -0.068224   -0.028585
           108    1       0.979075      7.220536      2.638868     0.312523    0.090310   -0.023260
 Energy
       -505.333116040000
 Feature   MD	Al-Ni_nodef
END_CFG

