BEGIN_CFG
 Size
    27
 Supercell
         8.488198      0.000000      0.000000
         0.911614      4.849067      0.000000
         0.898614     -1.826723      4.834516
 AtomData:  id type       cartes_x      cartes_y      cartes_z           fx          fy          fz
             1    0       3.433374      0.880252      1.098977     0.000608    0.000173   -0.000773
             2    0       2.980871     -1.160301      4.750060     0.000217   -0.000437    0.000258
             3    0       2.866702      3.772481      0.557814    -0.001018   -0.000269    0.001050
             4    0       1.288461      3.209507      1.085764     0.000832   -0.000429    0.000564
             5    0       2.767432     -0.206895      3.369993    -0.001433    0.000272   -0.000578
             6    0       4.201417      4.066523      1.660937     0.000596    0.000722   -0.000037
             7    0       2.890469      1.576309      2.627890     0.001390    0.000782   -0.000394
             8    0       4.191490      2.972560      2.944716     0.000398   -0.001588   -0.000437
             9    0       1.398315      0.838232      3.237850     0.000551    0.000066   -0.000573
            10    0       1.605788      0.013734      4.811511     0.000434    0.000192   -0.000619
            11    0       1.465057      2.451199      2.649158    -0.000729   -0.000401    0.000297
            12    0       4.937323     -0.058123      1.463370    -0.001212    0.000690   -0.000301
            13    0       5.545605      0.365910      3.309251    -0.000111    0.000143    0.000704
            14    0       5.592251      2.928569      1.534802     0.000626   -0.000370    0.000294
            15    0       5.761098      2.136554      3.101680    -0.000884   -0.000335    0.000733
            16    0       6.257299      0.411558      0.349663     0.000197   -0.000295   -0.000076
            17    0       7.059031     -0.484218      3.681048    -0.000040   -0.000310    0.000707
            18    0       8.503722      0.482154      4.187034     0.000036   -0.000591    0.000186
            19    0       8.520348      4.352302      0.905494    -0.000162   -0.000482   -0.000387
            20    0       7.095064      1.264215      3.618547    -0.000894    0.000384   -0.000634
            21    0       7.772583      1.199259      0.806663    -0.001277    0.000402    0.000789
            22    0       7.206503      2.260347      2.129679     0.001028    0.000665   -0.000787
            23    0       8.558258      3.385949      2.372165    -0.000571   -0.000183    0.000846
            24    0       6.875569      3.601626      0.443038     0.000489    0.001093    0.000759
            25    0       4.204349      1.518776      3.766096     0.001228    0.000531   -0.000720
            26    0       4.338869      0.079079      4.598731    -0.000084    0.000672   -0.001069
            27    0       4.954167      1.503319      0.501390    -0.000214   -0.001099    0.000196
 Energy
       -169.557880367493
 PlusStress:  xx          yy          zz          yz          xz          xy
        -0.00906    -0.00579     0.00185     0.00117    -0.00121    -0.00115
 Feature   EFS_by	MTP778
 Feature   from	relaxation_OK
 Feature   min_dist	1.668563
 Feature   number	4
END_CFG

BEGIN_CFG
 Size
    27
 Supercell
         6.510182      0.000000      0.000000
        -0.235257      5.826595      0.000000
        -1.730554     -0.402989      5.626708
 AtomData:  id type       cartes_x      cartes_y      cartes_z           fx          fy          fz
             1    0       3.430493      3.900693      2.148062    -0.000229    0.000071   -0.000041
             2    0       1.451700      0.091852      2.188699     0.000228   -0.000834    0.000427
             3    0       1.263946      1.845487      1.913666    -0.000178   -0.000088    0.000052
             4    0       2.292724      2.829992      2.904742    -0.000342    0.000553    0.000249
             5    0       1.288071      0.950299      5.133187    -0.000670    0.000326   -0.000637
             6    0       1.553512      1.947875      0.126316     0.000081   -0.000353    0.000314
             7    0       2.171786      2.362707      4.580767    -0.000082   -0.000221    0.000866
             8    0       4.623406      1.189288      2.578388    -0.000532   -0.000570    0.000678
             9    0       3.894261      0.176020      3.839973    -0.000261   -0.000277    0.000403
            10    0       3.870985      0.659920      0.897491    -0.000047   -0.000019    0.000834
            11    0       5.187345      3.996109      2.407018    -0.000389    0.000980    0.000376
            12    0       3.568671      1.872597      3.705716     0.000118    0.000352   -0.000093
            13    0       3.153379      1.030371      5.206119     0.000540    0.000088    0.000659
            14    0       1.414296      3.804908      4.103333     0.000532    0.000142   -0.000459
            15    0      -0.522043      2.398928      2.231544     0.000862    0.000871    0.000443
            16    0      -0.012867      2.239233      0.600439    -0.000683   -0.001232   -0.000292
            17    0      -0.383952      3.879844      0.961072     0.000459    0.000629   -0.000047
            18    0       5.476468      0.979149      1.126606     0.000407   -0.000188   -0.001382
            19    0      -1.007403      3.043417      5.329649    -0.000004   -0.000346   -0.000839
            20    0       5.237481      5.447019      3.381134    -0.001549    0.000142   -0.000450
            21    0       0.896340      5.430321      3.868271     0.000021   -0.000412   -0.000408
            22    0      -0.334215      4.156381      4.240273     0.000840   -0.000421   -0.001135
            23    0      -0.225078      0.030404      4.875362     0.001194   -0.000394    0.001012
            24    0       2.413387      4.945253      3.152669    -0.000388   -0.000347   -0.000044
            25    0       2.605066      5.175132      1.390182    -0.000239    0.000885    0.000187
            26    0      -0.397614      5.393324      1.643715     0.000716    0.000262   -0.000497
            27    0       1.008848      4.992677      0.602664    -0.000406    0.000405   -0.000175
 Energy
       -168.583972863567
 PlusStress:  xx          yy          zz          yz          xz          xy
         0.00709     0.00532     0.00174     0.00057    -0.00183    -0.00525
 Feature   EFS_by	MTP778
 Feature   from	relaxation_OK
 Feature   min_dist	1.652870
 Feature   number	5
END_CFG

BEGIN_CFG
 Size
    27
 Supercell
         8.580840      0.000000      0.000000
        -0.263555      4.379550      0.000000
        -1.817405     -2.117959      5.053761
 AtomData:  id type       cartes_x      cartes_y      cartes_z           fx          fy          fz
             1    0       3.721629      2.635946      0.761346    -0.000162   -0.000487    0.000487
             2    0       2.146881      1.828426      4.827316     0.000476   -0.000035   -0.001266
             3    0       4.508965     -0.095510      1.525695    -0.001213   -0.001575    0.000339
             4    0       3.492644      1.644846      3.638368    -0.000220   -0.000693    0.000354
             5    0       2.753139     -1.240793      3.804922    -0.000113   -0.000547    0.000356
             6    0       3.987924      2.901298      2.542219     0.000195    0.000517   -0.000569
             7    0       3.158616      0.017567      2.812688     0.001121    0.001438   -0.001911
             8    0       3.283150      0.283575      4.689235    -0.000875    0.000226   -0.000846
             9    0       3.391947      1.322319      1.793492     0.000029   -0.000029   -0.000159
            10    0      -0.320747     -1.820050      4.939622     0.000077    0.000978    0.000663
            11    0       0.484248      1.128259      4.681325     0.000025   -0.000763   -0.000295
            12    0       1.594404      0.590526      1.705323    -0.000262    0.000415    0.000789
            13    0       0.597593      2.076632      1.864862     0.000459    0.000243   -0.000235
            14    0       2.123869      1.837448      0.646329     0.000345   -0.000356    0.000499
            15    0       0.918900      3.338830      0.851430    -0.000691    0.000196    0.000353
            16    0       1.365845     -0.796418      2.712898     0.000047   -0.000224    0.000307
            17    0       0.257402      0.781143      2.907078    -0.000915    0.000139   -0.000357
            18    0       0.006488     -0.524839      3.898840     0.001185   -0.000405   -0.000189
            19    0       5.193922      2.364674      3.723140    -0.000011    0.002608    0.000575
            20    0       7.200492      0.100837      2.913533    -0.000060    0.000790    0.001321
            21    0       6.222253      0.361984      1.532521    -0.000870   -0.000085   -0.002401
            22    0       4.838464      1.296057      4.978811     0.000228    0.000069    0.000880
            23    0       6.364786      2.066123      0.930934     0.000949    0.000227    0.000379
            24    0       5.918610      3.149401      2.393737     0.000054   -0.002156   -0.000015
            25    0       7.353161      0.750088      0.290911     0.000636   -0.001651    0.000709
            26    0       8.023579      2.349384      0.390588    -0.000301    0.001123    0.001492
            27    0       6.819750     -1.022444      4.126655    -0.000135    0.000037   -0.001261
 Energy
       -170.638211801357
 PlusStress:  xx          yy          zz          yz          xz          xy
        -0.00113    -0.00606    -0.00110     0.00534     0.00639    -0.00237
 Feature   EFS_by	MTP778
 Feature   from	relaxation_OK
 Feature   min_dist	1.650281
 Feature   number	6
END_CFG

BEGIN_CFG
 Size
    27
 Supercell
         8.135755      0.000000      0.000000
        -0.354214      4.985440      0.000000
        -0.121586     -0.591051      5.378884
 AtomData:  id type       cartes_x      cartes_y      cartes_z           fx          fy          fz
             1    0       0.767103     -0.116688      4.320104    -0.000628    0.000090    0.000406
             2    0       1.156472      2.679904      3.186189     0.001396    0.000651    0.000434
             3    0       1.914349      2.334110      4.708563    -0.000720   -0.000219    0.000160
             4    0       0.488960      1.834904      1.738108    -0.001632   -0.000225   -0.000465
             5    0       1.777610      4.017889      2.157439    -0.001893   -0.001469    0.001599
             6    0       0.291267      3.124315      4.672074    -0.001964   -0.000308   -0.001713
             7    0       1.188614      3.145600      0.745796     0.000478   -0.000040    0.000848
             8    0       0.888100      0.286196      2.590127     0.000450    0.001018   -0.000257
             9    0       1.359603      1.508580      0.188272    -0.000889   -0.000170   -0.000438
            10    0       2.835066      2.829808      3.268845     0.001177   -0.000739   -0.000077
            11    0       5.084944     -0.272048      4.990612    -0.000733    0.002567   -0.001452
            12    0       6.179675      4.617157      0.540027    -0.001695   -0.000834    0.001022
            13    0       4.171949      2.480177      0.779727    -0.000138   -0.000878   -0.002415
            14    0       5.845481      2.937665      0.910865     0.001811   -0.001504   -0.001151
            15    0       7.487031      0.527430      1.705381     0.001041    0.001254    0.000809
            16    0       4.292252      2.106855      3.511210    -0.002036    0.000875   -0.000784
            17    0       3.757126     -0.233978      2.230383     0.000498   -0.000695   -0.000902
            18    0       5.137397      1.448230      4.847947    -0.000768    0.001617    0.003378
            19    0       2.900707      3.716931      0.789063     0.002037    0.000800    0.000519
            20    0       4.346389      3.866391      3.504581     0.001314    0.000349    0.001885
            21    0       6.019004      4.116976      4.066196    -0.001206   -0.003053    0.000740
            22    0       6.811859      2.075385      2.040548     0.001131   -0.001241   -0.001528
            23    0       5.890176      2.509068      3.435525    -0.000497    0.000958    0.000740
            24    0       4.533366      4.215455      1.014216     0.001783    0.000890   -0.001341
            25    0       6.726814      2.688999      4.906407     0.002169   -0.000366    0.000440
            26    0       7.523752      0.027417      3.328758     0.000382   -0.000451   -0.000546
            27    0       3.562347      1.520853      2.129246    -0.000867    0.001124    0.000090
 Energy
       -167.784447396521
 PlusStress:  xx          yy          zz          yz          xz          xy
         0.00456     0.00188    -0.00469     0.00570     0.00783     0.00001
 Feature   EFS_by	MTP778
 Feature   from	relaxation_OK
 Feature   min_dist	1.634058
 Feature   number	7
END_CFG

BEGIN_CFG
 Size
    27
 Supercell
         5.912222      0.000000      0.000000
        -0.790000      6.248561      0.000000
         1.131873     -1.053342      5.356237
 AtomData:  id type       cartes_x      cartes_y      cartes_z           fx          fy          fz
             1    0       2.040116     -0.315794      1.762283     0.001891   -0.001050    0.002494
             2    0       2.496540      0.922013      4.458305     0.000634   -0.000107   -0.000252
             3    0       3.172695      0.784877      0.866914     0.000195   -0.000324   -0.001091
             4    0       1.829476      1.438114      1.760864    -0.000821    0.000239   -0.000639
             5    0       1.344919      0.562259      3.253147    -0.001068   -0.000570   -0.001302
             6    0       2.816898      2.636727      4.813112    -0.000513    0.001569    0.000725
             7    0       1.881029      3.704337      3.512936    -0.001636   -0.000664   -0.001093
             8    0       0.776143      2.865363      2.305577     0.001378   -0.000286   -0.000138
             9    0       0.891739      2.485579      0.649805    -0.000570   -0.000113    0.001204
            10    0       2.367096      2.159989      3.186579    -0.000226   -0.000765    0.001074
            11    0       0.826686      4.470430      4.492714     0.000160    0.000867    0.001422
            12    0       1.117936      4.176330      1.083434    -0.000339   -0.000906   -0.001277
            13    0       2.612303      4.774586      2.081739    -0.001352    0.001194   -0.000009
            14    0      -0.132934      5.299858      0.903609    -0.001199   -0.001677   -0.002629
            15    0       1.990522      5.468639      3.570442     0.000190    0.001217   -0.000264
            16    0       5.107401      2.471219      3.013972    -0.000659   -0.000742    0.000568
            17    0       4.009955      5.442587      3.282689     0.000168    0.000699    0.000074
            18    0       4.069028      2.209775      0.201484    -0.000053    0.000144   -0.000203
            19    0       3.670286      2.158095      1.913527     0.000478    0.000745   -0.000350
            20    0       4.219589      5.175185      1.604185     0.000093    0.000464    0.000590
            21    0       6.762280      0.545598      5.065373    -0.001218   -0.000025    0.000026
            22    0       5.079599      4.160477      3.997548     0.001454    0.001168    0.000277
            23    0       4.490513      6.142762      0.183852     0.000319   -0.000002   -0.000399
            24    0       5.498593      0.884049      3.798800     0.001858    0.000936    0.000487
            25    0       3.571696      3.674125      1.028216    -0.001068   -0.001017    0.001143
            26    0       4.029949      0.046373      4.529925     0.000862   -0.001349    0.000355
            27    0       4.575195      2.630739      4.659121     0.001042    0.000358   -0.000791
 Energy
       -168.923181038593
 PlusStress:  xx          yy          zz          yz          xz          xy
        -0.00148    -0.00185    -0.00910     0.00108    -0.00044     0.00245
 Feature   EFS_by	MTP778
 Feature   from	relaxation_OK
 Feature   min_dist	1.630491
 Feature   number	8
END_CFG

BEGIN_CFG
 Size
    27
 Supercell
         8.356397      0.000000      0.000000
        -1.043969      5.325477      0.000000
        -0.811595     -0.346313      4.885206
 AtomData:  id type       cartes_x      cartes_y      cartes_z           fx          fy          fz
             1    0       2.704041      5.153354      2.398306    -0.000315    0.002715    0.000428
             2    0      -0.404799      4.196374      4.632367     0.001041    0.000108   -0.001130
             3    0       3.419069     -0.309246      4.518872    -0.000367   -0.001773   -0.000015
             4    0       0.599757      2.940052      3.786336     0.001154    0.000098    0.000050
             5    0       1.597717      0.811397      0.539022     0.000356    0.000304    0.000342
             6    0      -0.147664      1.713467      2.803922    -0.002245    0.000150   -0.000516
             7    0       1.848624      4.983585      0.797297     0.000619    0.000595    0.000569
             8    0       1.085606      1.234632      3.880732    -0.000566   -0.000795    0.000641
             9    0       0.217982      1.771872      1.136773    -0.000237    0.000206    0.001084
            10    0       2.720569      0.881968      3.394927     0.000308    0.001714   -0.000738
            11    0       2.448147      2.313462      4.252278    -0.000467    0.000658   -0.000265
            12    0       3.559646      3.737080      4.636897    -0.000482   -0.000208   -0.001092
            13    0       1.025113      3.263077      0.669393     0.001264   -0.001346    0.000564
            14    0       3.678115      2.601130      1.028304     0.000224   -0.002318    0.000362
            15    0       3.863969      1.344190      4.681018     0.000100    0.000358   -0.000065
            16    0       2.248474      3.744040      3.384761    -0.000370   -0.000336    0.001022
            17    0       2.407243      3.586168      1.690638    -0.001101   -0.001127   -0.001404
            18    0       2.830232      1.158065      1.703660     0.001088   -0.000147   -0.000079
            19    0       5.160747      3.259353      3.903804    -0.000639   -0.001082   -0.000826
            20    0       6.890230      0.686725      3.299997     0.000594   -0.000373   -0.000066
            21    0       5.447341      0.399046      2.390676    -0.001097    0.000201   -0.000185
            22    0       5.480552      1.496936      3.932065    -0.000323    0.000688   -0.000020
            23    0       5.690283      0.524275      0.553371     0.000297    0.000590    0.000022
            24    0       5.616831      4.402810      2.568245     0.000656    0.000042    0.001377
            25    0       5.868634      4.571047      0.574025     0.001004   -0.000750    0.001414
            26    0       7.396952      0.950055      0.144353    -0.000219    0.001147   -0.000608
            27    0       6.309403      4.497923      4.205383    -0.000277    0.000682   -0.000866
 Energy
       -168.269529513408
 PlusStress:  xx          yy          zz          yz          xz          xy
         0.00961     0.01222     0.00963    -0.00585     0.00297     0.00006
 Feature   EFS_by	MTP778
 Feature   from	relaxation_OK
 Feature   min_dist	1.684936
 Feature   number	9
END_CFG

BEGIN_CFG
 Size
    27
 Supercell
         7.592904      0.000000      0.000000
        -0.536321      4.369848      0.000000
        -0.574881     -2.028526      5.399564
 AtomData:  id type       cartes_x      cartes_y      cartes_z           fx          fy          fz
             1    0       0.393313      2.352276      2.793966     0.000004   -0.000029    0.000070
             2    0       0.354218      3.584642      1.689182    -0.000002    0.000010    0.000008
             3    0       1.424915     -0.287783      3.374821     0.000017   -0.000001   -0.000043
             4    0       1.463294      3.450477      0.265995     0.000013   -0.000033   -0.000032
             5    0       0.922836      0.519330      0.629567    -0.000017    0.000057   -0.000022
             6    0       1.441267     -1.682807      4.479333     0.000019   -0.000074   -0.000022
             7    0       0.356205     -0.234360      4.935603    -0.000019   -0.000016   -0.000032
             8    0       1.440960      2.044607      1.349559    -0.000032    0.000007   -0.000016
             9    0       0.327692      1.030639      3.870271    -0.000006    0.000011    0.000038
            10    0       5.763734      2.440693      0.252331    -0.000055   -0.000042    0.000007
            11    0       5.268374      1.634286      4.584928     0.000012    0.000024   -0.000040
            12    0       6.883744     -0.217549      0.856039     0.000022    0.000038    0.000022
            13    0       6.305216      1.480069      3.130034    -0.000021   -0.000010    0.000054
            14    0       5.237014      2.920403      3.504302     0.000020   -0.000002   -0.000050
            15    0       6.331675      2.767546      1.972254    -0.000006    0.000053   -0.000037
            16    0       5.758746     -0.163480      2.460397    -0.000007   -0.000009    0.000011
            17    0       6.317988      0.111879      4.260740     0.000008    0.000023    0.000005
            18    0       5.829505      1.109856      1.336725    -0.000013   -0.000075    0.000035
            19    0       2.535195      2.231760      5.277543    -0.000011    0.000041   -0.000015
            20    0       3.584437      0.913737      4.821837    -0.000009    0.000037    0.000025
            21    0       4.126071      0.292606      1.704174     0.000057    0.000005   -0.000005
            22    0       3.080168      1.716753      2.061513    -0.000005   -0.000046    0.000026
            23    0       4.200397      1.545205      0.520453     0.000049   -0.000014   -0.000029
            24    0       3.053586      3.005506      1.022923    -0.000023   -0.000057   -0.000021
            25    0       3.618833      3.269266      2.802053     0.000067    0.000041    0.000067
            26    0       3.076211      0.420471      3.137073    -0.000056    0.000020    0.000014
            27    0       3.047267     -0.783955      4.226890    -0.000010    0.000039   -0.000017
 Energy
       -175.609604247003
 PlusStress:  xx          yy          zz          yz          xz          xy
        -0.00036     0.00009     0.00002    -0.00006    -0.00004    -0.00005
 Feature   EFS_by	MTP778
 Feature   from	relaxation_OK
 Feature   min_dist	1.624290
 Feature   number	10
END_CFG

BEGIN_CFG
 Size
    27
 Supercell
         7.594759      0.000000      0.000000
         0.598689      4.370923      0.000000
         0.461089     -2.052898      5.409628
 AtomData:  id type       cartes_x      cartes_y      cartes_z           fx          fy          fz
             1    0       1.300153      0.383035      3.441034     0.000036   -0.000032    0.000005
             2    0       1.372187      2.953497      1.265332     0.000058    0.000018   -0.000006
             3    0       1.307735     -0.932167      4.490133     0.000029    0.000050   -0.000026
             4    0       1.364883      4.242539      0.210384     0.000032   -0.000052    0.000038
             5    0       1.361564      1.663346      2.374131     0.000003   -0.000029   -0.000028
             6    0       1.873030     -0.120945      1.799905    -0.000073   -0.000107   -0.000112
             7    0       2.350489      1.894733      3.841137     0.000035    0.000041   -0.000006
             8    0       2.405881      0.523626      4.873850    -0.000044   -0.000026   -0.000004
             9    0       1.875951      1.295770      0.652279    -0.000096    0.000120    0.000027
            10    0       4.562242      0.682236      2.407895     0.000022    0.000064   -0.000020
            11    0       3.499672      0.512905      0.927486    -0.000006    0.000002    0.000051
            12    0       4.117646      3.518241      1.972429    -0.000039   -0.000022   -0.000035
            13    0       7.341501      3.907443      0.874203     0.000014   -0.000016    0.000001
            14    0       7.332085      2.530386      1.994277     0.000102    0.000099   -0.000005
            15    0       6.171447      1.104171      1.631291    -0.000051   -0.000047    0.000114
            16    0       6.311938      2.342023      0.483704    -0.000006   -0.000018    0.000098
            17    0       4.637644      1.960580      1.295965     0.000007   -0.000006    0.000100
            18    0       4.008514     -0.266909      5.140801     0.000037   -0.000016   -0.000022
            19    0       4.500529     -0.658903      3.411590     0.000068   -0.000012   -0.000029
            20    0       4.012196      1.149482      4.018904    -0.000035    0.000056    0.000043
            21    0       7.276825      1.229646      3.163162    -0.000061   -0.000115    0.000054
            22    0       6.714667      2.878718      3.743238     0.000024    0.000059   -0.000036
            23    0       6.753212      1.615332      4.875502     0.000046    0.000102   -0.000042
            24    0       7.272514     -0.162968      4.261248    -0.000028   -0.000063   -0.000181
            25    0       5.155132      2.468525      4.546332    -0.000021    0.000014    0.000073
            26    0       4.609652      3.222941      0.193590    -0.000021   -0.000056   -0.000028
            27    0       6.252318     -0.198911      2.681246    -0.000033   -0.000010   -0.000025
 Energy
       -175.473876326363
 PlusStress:  xx          yy          zz          yz          xz          xy
         0.00059     0.00008     0.00010    -0.00032     0.00011    -0.00022
 Feature   EFS_by	MTP778
 Feature   from	relaxation_OK
 Feature   min_dist	1.665712
 Feature   number	11
END_CFG

BEGIN_CFG
 Size
    27
 Supercell
         7.752458      0.000000      0.000000
         0.196083      4.393946      0.000000
        -1.627829     -1.873313      5.256892
 AtomData:  id type       cartes_x      cartes_y      cartes_z           fx          fy          fz
             1    0       0.942724      1.629643      3.671980     0.000059    0.000002    0.000012
             2    0       0.583964      0.279964      4.761441     0.000056   -0.000012    0.000039
             3    0      -0.146752     -1.268803      4.023756    -0.000046   -0.000013    0.000037
             4    0       0.225904      0.027195      3.016384    -0.000071    0.000022    0.000032
             5    0       1.782392      0.866345      0.601724     0.000073   -0.000001   -0.000126
             6    0       0.950802      2.505694      0.869658     0.000020    0.000005   -0.000010
             7    0       0.585821      1.208731      1.921064    -0.000078    0.000035    0.000035
             8    0       1.445739     -0.468275      1.712910     0.000004   -0.000041    0.000020
             9    0      -0.312626      1.874398      5.089952     0.000014    0.000015   -0.000006
            10    0       4.988070     -0.194699      4.398147    -0.000006   -0.000018    0.000036
            11    0       2.682119      2.121992      3.704462    -0.000016   -0.000030    0.000006
            12    0       3.077025      3.298724      2.614228    -0.000021    0.000012    0.000056
            13    0       3.230126     -0.690707      4.360256    -0.000019    0.000010    0.000053
            14    0       4.292090      2.969999      1.325775     0.000061   -0.000038   -0.000041
            15    0       3.207851      0.207103      1.595513    -0.000043   -0.000065   -0.000016
            16    0       4.670611      4.251753      0.195421    -0.000025    0.000035   -0.000042
            17    0       5.694091      2.286882      2.282657     0.000041    0.000004   -0.000002
            18    0       6.227183      0.371772      0.123321     0.000016   -0.000002   -0.000017
            19    0       6.081526      3.555439      1.252344    -0.000003    0.000023    0.000028
            20    0       3.618996      1.443448      0.526997    -0.000009   -0.000032   -0.000005
            21    0       5.325116      1.007937      3.317879     0.000004   -0.000003    0.000029
            22    0       3.899062      1.639554      2.406123     0.000040    0.000062   -0.000003
            23    0       2.334086      0.818809      4.712843    -0.000036    0.000032   -0.000062
            24    0       6.179126     -0.661611      3.113458     0.000062   -0.000019   -0.000052
            25    0       5.693250      1.400014      5.046429    -0.000028   -0.000009   -0.000008
            26    0       6.970154      1.943294      0.896403    -0.000043    0.000057   -0.000035
            27    0       6.560031      0.681111      2.025685    -0.000009   -0.000030    0.000042
 Energy
       -175.422835219943
 PlusStress:  xx          yy          zz          yz          xz          xy
         0.00008    -0.00002     0.00020    -0.00002     0.00008    -0.00004
 Feature   EFS_by	MTP778
 Feature   from	relaxation_OK
 Feature   min_dist	1.650846
 Feature   number	13
END_CFG

BEGIN_CFG
 Size
    27
 Supercell
         8.442694      0.000000      0.000000
        -0.900365      4.260032      0.000000
        -0.951287     -2.162595      5.293665
 AtomData:  id type       cartes_x      cartes_y      cartes_z           fx          fy          fz
             1    0       0.069243      1.489962      2.079351    -0.000619   -0.000638    0.000141
             2    0      -0.706762      3.008041      1.459542    -0.001021    0.000020    0.000498