BEGIN_CFG
 Size
    27
 Supercell
         5.593760      0.000000      0.000000
        -0.164466      5.639197      0.000000
        -1.570215      0.112233      6.711409
 AtomData:  id type       cartes_x      cartes_y      cartes_z           fx          fy          fz
             1    0      -0.245976      4.457446      2.617091     0.000760   -0.000372   -0.000377
             2    0      -0.176418      4.186062      4.345024     0.000917    0.000841    0.000447
             3    0       0.472489      3.834418      1.003545    -0.000907    0.000318   -0.000129
             4    0       1.554573      2.659878      1.841245     0.000253    0.000497   -0.000968
             5    0       0.487833      1.355371      4.295312    -0.000350    0.001651    0.000584
             6    0       0.484839      5.528832      5.284801    -0.000068   -0.001165   -0.000204
             7    0       0.464691      2.832782      5.266927     0.000424   -0.000469   -0.001086
             8    0       0.880724      5.423640      3.600659     0.000767   -0.000065   -0.000034
             9    0       0.579596      1.352076      2.561486     0.000378   -0.000645    0.000158
            10    0      -0.522734      1.383614      5.891960    -0.000207   -0.000073    0.000180
            11    0       1.351353      1.110506      1.027640    -0.000163   -0.000146   -0.000797
            12    0       1.077945      5.294603      0.070212     0.000428    0.000610    0.000881
            13    0       1.647098      2.604973      0.192121    -0.001552   -0.002052    0.001401
            14    0       2.326928      5.442257      1.367274    -0.000472    0.000465    0.000527
            15    0       3.371682      4.585411      6.595702     0.000100   -0.000161   -0.000406
            16    0       4.823765      2.740249      0.260565    -0.000699   -0.000014   -0.000731
            17    0       3.899418      5.638338      0.683645    -0.000733    0.000032   -0.000948
            18    0       3.268282      1.705354      5.556096     0.000464   -0.000335   -0.000070
            19    0       2.305223      5.714998      5.748262    -0.000191    0.000047    0.000297
            20    0       2.431311      4.975056      3.062687     0.000156   -0.000353   -0.000291
            21    0       4.791172      1.397659      1.445697    -0.000053   -0.000718   -0.000609
            22    0       3.904993      4.107183      3.483384    -0.000958    0.000496   -0.000680
            23    0       3.539118      2.408974      3.983114    -0.001001    0.001299    0.001911
            24    0       4.576637      1.427551      3.125400     0.000996    0.000195    0.000210
            25    0       2.412364      3.265581      3.157104     0.001564    0.000738   -0.001266
            26    0       1.955485      2.394960      4.601731     0.000281   -0.000823    0.001025
            27    0       3.858773      5.575931      2.364628    -0.000136    0.000199    0.000972
 Energy
       -167.384715026591
 PlusStress:  xx          yy          zz          yz          xz          xy
        -0.00833    -0.00964    -0.01027     0.00129    -0.00339    -0.00478
 Feature   EFS_by	MTP778
 Feature   from	relaxation_OK
 Feature   min_dist	1.638792
 Feature   number	1
END_CFG

BEGIN_CFG
 Size
    27
 Supercell
         8.090200      0.000000      0.000000
         0.098489      6.109798      0.000000
        -0.875805     -0.264757      4.181665
 AtomData:  id type       cartes_x      cartes_y      cartes_z           fx          fy          fz
             1    0       0.416584      3.638839      0.433347     0.000825   -0.000187    0.000121
             2    0      -0.093083      1.370760      2.561370     0.000359    0.001058    0.000499
             3    0       0.255347      5.361961      0.206709    -0.000623   -0.000797    0.001367
             4    0       0.253668      5.793156      3.096787     0.001915    0.001452    0.002767
             5    0       7.498262     -0.024822      1.600359     0.000505    0.000580   -0.001868
             6    0       0.829893      4.718360      1.771865     0.000142    0.001426   -0.002412
             7    0       0.723310      2.522302      3.658152    -0.000886   -0.000075   -0.000404
             8    0       1.919048      3.700397      2.951884    -0.000140    0.000599    0.000576
             9    0       1.320702      0.885995      3.412312    -0.000860    0.001227   -0.000016
            10    0       5.696446      0.292796      1.323853     0.000066   -0.002879    0.001718
            11    0       3.616367      3.098202      0.278961    -0.000951   -0.000900    0.001642
            12    0       3.588933      4.851522      0.096478    -0.001269    0.001673   -0.002312
            13    0       4.083744      5.799643      1.506857     0.000973    0.001202    0.001385
            14    0       3.121569      2.734562      2.007630     0.000699    0.000468    0.000526
            15    0       2.029395      5.443824      2.919232    -0.000070   -0.000039   -0.000420
            16    0       4.237753      4.069957      1.509146     0.000003   -0.001512    0.000586
            17    0       6.163269      3.988710      3.676444    -0.000216   -0.000549   -0.001228
            18    0       6.879214      2.960234      0.667563     0.000733   -0.000214    0.000383
            19    0       5.449843      2.361142      3.203815     0.000091   -0.000863   -0.000080
            20    0       5.778389      5.617938      4.101766     0.000811   -0.001688   -0.000787
            21    0       5.392717      5.113723      2.435416    -0.001057    0.000828   -0.001329
            22    0       5.891239      3.527618      2.005953     0.000087   -0.001348    0.001301
            23    0       2.840043      0.857076      2.237334    -0.002072   -0.000424    0.000629
            24    0       5.951795      1.435930      0.112431    -0.000264    0.000583   -0.001270
            25    0       6.425274      1.823755      1.871185     0.000722    0.000029    0.000778
            26    0       3.764449      1.853389      3.387753     0.000756    0.000084    0.000700
            27    0       2.501124      1.811831      0.744622    -0.000278    0.000267   -0.002854
 Energy
       -168.354830774707
 PlusStress:  xx          yy          zz          yz          xz          xy
        -0.00455     0.00002     0.00275     0.00366     0.00461     0.00080
 Feature   EFS_by	MTP778
 Feature   from	relaxation_OK
 Feature   min_dist	1.656655
 Feature   number	2
END_CFG

BEGIN_CFG
 Size
    27
 Supercell
         8.466188      0.000000      0.000000
         1.032783      4.830381      0.000000
        -0.062001     -0.021419      4.896140
 AtomData:  id type       cartes_x      cartes_y      cartes_z           fx          fy          fz
             1    0       4.013951      1.655927      0.906256     0.000640   -0.000489   -0.000421
             2    0       5.560797      2.096649      1.677956     0.001120    0.000222    0.001995
             3    0       9.064085      4.686080      1.649512     0.000990   -0.000834   -0.001005
             4    0       1.256805      2.864830      4.177928     0.001585    0.001647   -0.000959
             5    0       6.118156      3.676718      1.850929    -0.001237   -0.000249   -0.001034
             6    0       3.434153      4.157504      4.761564     0.001224    0.000526    0.000305
             7    0       1.289169      2.188789      0.843171    -0.001068   -0.001894    0.001006
             8    0       8.360255      1.605868      1.678747     0.000334    0.000657   -0.001769
             9    0       1.904734      3.774982      0.769892    -0.002065   -0.000254    0.000979
            10    0       3.291595      4.214589      1.718838    -0.001866   -0.000673    0.001206
            11    0       4.750846      4.769707      0.931259     0.000843   -0.000281   -0.000179
            12    0       5.164256      0.517162      1.700305    -0.000598   -0.000815    0.000603
            13    0       6.849955      1.000890      0.862889     0.002109    0.000618   -0.000461
            14    0       2.731243      2.520861      1.754313    -0.002080    0.000048    0.001267
            15    0       0.318462      0.596744      3.055364     0.000039   -0.000724    0.000586
            16    0       3.536442      0.721366      4.180286    -0.000557   -0.000127    0.000198
            17    0       8.707737      4.057300      3.334090     0.000165    0.000533    0.000831
            18    0       5.965015      4.564794      3.455473    -0.000366    0.000946    0.001505
            19    0       2.558615      1.990365      3.360777    -0.000221    0.000099    0.000137
            20    0       2.052536      0.283339      3.274226     0.000141    0.001176    0.000334
            21    0       5.566958      2.914083      3.420884     0.000913    0.001735   -0.001208
            22    0       6.814512      1.864429      4.206250     0.002149    0.002348   -0.000722
            23    0       5.446571      1.287137      3.289428     0.000710   -0.000128   -0.002236
            24    0       4.026236      2.459620      4.211010    -0.001063   -0.001080    0.000110
            25    0       6.477131      0.199168      4.202477    -0.001313   -0.002488   -0.000062
            26    0       8.271202      2.297716      3.346234    -0.000507   -0.000834    0.000487
            27    0       7.950112      3.318394      1.926232    -0.000023    0.000316   -0.001494
 Energy
       -170.694051325481
 PlusStress:  xx          yy          zz          yz          xz          xy
         0.00523     0.00499     0.00130     0.00096    -0.00083     0.00366
 Feature   EFS_by	MTP778
 Feature   from	relaxation_OK
 Feature   min_dist	1.628656
 Feature   number	3
END_CFG

BEGIN_CFG
 Size
    27
 Supercell
         8.488198      0.000000      0.000000
         0.911614      4.849067      0.000000
         0.898614     -1.826723      4.834516
 AtomData:  id type       cartes_x      cartes_y      cartes_z           fx          fy          fz
             1    0       3.433374      0.880252      1.098977     0.000608    0.000173   -0.000773
             2    0       2.980871     -1.160301      4.750060     0.000217   -0.000437    0.000258
             3    0       2.866702      3.772481      0.557814    -0.001018   -0.000269    0.001050
             4    0       1.288461      3.209507      1.085764     0.000832   -0.000429    0.000564
             5    0       2.767432     -0.206895      3.369993    -0.001433    0.000272   -0.000578
             6    0       4.201417      4.066523      1.660937     0.000596    0.000722   -0.000037
             7    0       2.890469      1.576309      2.627890     0.001390    0.000782   -0.000394
             8    0       4.191490      2.972560      2.944716     0.000398   -0.001588   -0.000437
             9    0       1.398315      0.838232      3.237850     0.000551    0.000066   -0.000573
            10    0       1.605788      0.013734      4.811511     0.000434    0.000192   -0.000619
            11    0       1.465057      2.451199      2.649158    -0.000729   -0.000401    0.000297
            12    0       4.937323     -0.058123      1.463370    -0.001212    0.000690   -0.000301
            13    0       5.545605      0.365910      3.309251    -0.000111    0.000143    0.000704
            14    0       5.592251      2.928569      1.534802     0.000626   -0.000370    0.000294
            15    0       5.761098      2.136554      3.101680    -0.000884   -0.000335    0.000733
            16    0       6.257299      0.411558      0.349663     0.000197   -0.000295   -0.000076
            17    0       7.059031     -0.484218      3.681048    -0.000040   -0.000310    0.000707
            18    0       8.503722      0.482154      4.187034     0.000036   -0.000591    0.000186
            19    0       8.520348      4.352302      0.905494    -0.000162   -0.000482   -0.000387
            20    0       7.095064      1.264215      3.618547    -0.000894    0.000384   -0.000634
            21    0       7.772583      1.199259      0.806663    -0.001277    0.000402    0.000789
            22    0       7.206503      2.260347      2.129679     0.001028    0.000665   -0.000787
            23    0       8.558258      3.385949      2.372165    -0.000571   -0.000183    0.000846
            24    0       6.875569      3.601626      0.443038     0.000489    0.001093    0.000759
            25    0       4.204349      1.518776      3.766096     0.001228    0.000531   -0.000720
            26    0       4.338869      0.079079      4.598731    -0.000084    0.000672   -0.001069
            27    0       4.954167      1.503319      0.501390    -0.000214   -0.001099    0.000196
 Energy
       -169.557880367493
 PlusStress:  xx          yy          zz          yz          xz          xy
        -0.00906    -0.00579     0.00185     0.00117    -0.00121    -0.00115
 Feature   EFS_by	MTP778
 Feature   from	relaxation_OK
 Feature   min_dist	1.668563
 Feature   number	4
END_CFG

BEGIN_CFG
 Size
    27
 Supercell
         6.510182      0.000000      0.000000
        -0.235257      5.826595      0.000000
        -1.730554     -0.402989      5.626708
 AtomData:  id type       cartes_x      cartes_y      cartes_z           fx          fy          fz
             1    0       3.430493      3.900693      2.148062    -0.000229    0.000071   -0.000041
             2    0       1.451700      0.091852      2.188699     0.000228   -0.000834    0.000427
             3    0       1.263946      1.845487      1.913666    -0.000178   -0.000088    0.000052
             4    0       2.292724      2.829992      2.904742    -0.000342    0.000553    0.000249
             5    0       1.288071      0.950299      5.133187    -0.000670    0.000326   -0.000637
             6    0       1.553512      1.947875      0.126316     0.000081   -0.000353    0.000314
             7    0       2.171786      2.362707      4.580767    -0.000082   -0.000221    0.000866
             8    0       4.623406      1.189288      2.578388    -0.000532   -0.000570    0.000678
             9    0       3.894261      0.176020      3.839973    -0.000261   -0.000277    0.000403
            10    0       3.870985      0.659920      0.897491    -0.000047   -0.000019    0.000834
            11    0       5.187345      3.996109      2.407018    -0.000389    0.000980    0.000376
            12    0       3.568671      1.872597      3.705716     0.000118    0.000352   -0.000093
            13    0       3.153379      1.030371      5.206119     0.000540    0.000088    0.000659
            14    0       1.414296      3.804908      4.103333     0.000532    0.000142   -0.000459
            15    0      -0.522043      2.398928      2.231544     0.000862    0.000871    0.000443
            16    0      -0.012867      2.239233      0.600439    -0.000683   -0.001232   -0.000292
            17    0      -0.383952      3.879844      0.961072     0.000459    0.000629   -0.000047
            18    0       5.476468      0.979149      1.126606     0.000407   -0.000188   -0.001382
            19    0      -1.007403      3.043417      5.329649    -0.000004   -0.000346   -0.000839
            20    0       5.237481      5.447019      3.381134    -0.001549    0.000142   -0.000450
            21    0       0.896340      5.430321      3.868271     0.000021   -0.000412   -0.000408
            22    0      -0.334215      4.156381      4.240273     0.000840   -0.000421   -0.001135
            23    0      -0.225078      0.030404      4.875362     0.001194   -0.000394    0.001012
            24    0       2.413387      4.945253      3.152669    -0.000388   -0.000347   -0.000044
            25    0       2.605066      5.175132      1.390182    -0.000239    0.000885    0.000187
            26    0      -0.397614      5.393324      1.643715     0.000716    0.000262   -0.000497
            27    0       1.008848      4.992677      0.602664    -0.000406    0.000405   -0.000175
 Energy
       -168.583972863567
 PlusStress:  xx          yy          zz          yz          xz          xy
         0.00709     0.00532     0.00174     0.00057    -0.00183    -0.00525
 Feature   EFS_by	MTP778
 Feature   from	relaxation_OK
 Feature   min_dist	1.652870
 Feature   number	5
END_CFG

BEGIN_CFG
 Size
    27
 Supercell
         8.580840      0.000000      0.000000
        -0.263555      4.379550      0.000000
        -1.817405     -2.117959      5.053761
 AtomData:  id type       cartes_x      cartes_y      cartes_z           fx          fy          fz
             1    0       3.721629      2.635946      0.761346    -0.000162   -0.000487    0.000487
             2    0       2.146881      1.828426      4.827316     0.000476   -0.000035   -0.001266
             3    0       4.508965     -0.095510      1.525695    -0.001213   -0.001575    0.000339
             4    0       3.492644      1.644846      3.638368    -0.000220   -0.000693    0.000354
             5    0       2.753139     -1.240793      3.804922    -0.000113   -0.000547    0.000356
             6    0       3.987924      2.901298      2.542219     0.000195    0.000517   -0.000569
             7    0       3.158616      0.017567      2.812688     0.001121    0.001438   -0.001911
             8    0       3.283150      0.283575      4.689235    -0.000875    0.000226   -0.000846
             9    0       3.391947      1.322319      1.793492     0.000029   -0.000029   -0.000159
            10    0      -0.320747     -1.820050      4.939622     0.000077    0.000978    0.000663
            11    0       0.484248      1.128259      4.681325     0.000025   -0.000763   -0.000295
            12    0       1.594404      0.590526      1.705323    -0.000262    0.000415    0.000789
            13    0       0.597593      2.076632      1.864862     0.000459    0.000243   -0.000235
            14    0       2.123869      1.837448      0.646329     0.000345   -0.000356    0.000499
            15    0       0.918900      3.338830      0.851430    -0.000691    0.000196    0.000353
            16    0       1.365845     -0.796418      2.712898     0.000047   -0.000224    0.000307
            17    0       0.257402      0.781143      2.907078    -0.000915    0.000139   -0.000357
            18    0       0.006488     -0.524839      3.898840     0.001185   -0.000405   -0.000189
            19    0       5.193922      2.364674      3.723140    -0.000011    0.002608    0.000575
            20    0       7.200492      0.100837      2.913533    -0.000060    0.000790    0.001321
            21    0       6.222253      0.361984      1.532521    -0.000870   -0.000085   -0.002401
            22    0       4.838464      1.296057      4.978811     0.000228    0.000069    0.000880
            23    0       6.364786      2.066123      0.930934     0.000949    0.000227    0.000379
            24    0       5.918610      3.149401      2.393737     0.000054   -0.002156   -0.000015
            25    0       7.353161      0.750088      0.290911     0.000636   -0.001651    0.000709
            26    0       8.023579      2.349384      0.390588    -0.000301    0.001123    0.001492
            27    0       6.819750     -1.022444      4.126655    -0.000135    0.000037   -0.001261
 Energy
       -170.638211801357
 PlusStress:  xx          yy          zz          yz          xz          xy
        -0.00113    -0.00606    -0.00110     0.00534     0.00639    -0.00237
 Feature   EFS_by	MTP778
 Feature   from	relaxation_OK
 Feature   min_dist	1.650281
 Feature   number	6
END_CFG

BEGIN_CFG
 Size
    27
 Supercell
         8.135755      0.000000      0.000000
        -0.354214      4.985440      0.000000
        -0.121586     -0.591051      5.378884
 AtomData:  id type       cartes_x      cartes_y      cartes_z           fx          fy          fz
             1    0       0.767103     -0.116688      4.320104    -0.000628    0.000090    0.000406
             2    0       1.156472      2.679904      3.186189     0.001396    0.000651    0.000434
             3    0       1.914349      2.334110      4.708563    -0.000720   -0.000219    0.000160
             4    0       0.488960      1.834904      1.738108    -0.001632   -0.000225   -0.000465
             5    0       1.777610      4.017889      2.157439    -0.001893   -0.001469    0.001599
             6    0       0.291267      3.124315      4.672074    -0.001964   -0.000308   -0.001713
             7    0       1.188614      3.145600      0.745796     0.000478   -0.000040    0.000848
             8    0       0.888100      0.286196      2.590127     0.000450    0.001018   -0.000257
             9    0       1.359603      1.508580      0.188272    -0.000889   -0.000170   -0.000438
            10    0       2.835066      2.829808      3.268845     0.001177   -0.000739   -0.000077
            11    0       5.084944     -0.272048      4.990612    -0.000733    0.002567   -0.001452
            12    0       6.179675      4.617157      0.540027    -0.001695   -0.000834    0.001022
            13    0       4.171949      2.480177      0.779727    -0.000138   -0.000878   -0.002415
            14    0       5.845481      2.937665      0.910865     0.001811   -0.001504   -0.001151
            15    0       7.487031      0.527430      1.705381     0.001041    0.001254    0.000809
            16    0       4.292252      2.106855      3.511210    -0.002036    0.000875   -0.000784
            17    0       3.757126     -0.233978      2.230383     0.000498   -0.000695   -0.000902
            18    0       5.137397      1.448230      4.847947    -0.000768    0.001617    0.003378
            19    0       2.900707      3.716931      0.789063     0.002037    0.000800    0.000519
            20    0       4.346389      3.866391      3.504581     0.001314    0.000349    0.001885
            21    0       6.019004      4.116976      4.066196    -0.001206   -0.003053    0.000740
            22    0       6.811859      2.075385      2.040548     0.001131   -0.001241   -0.001528
            23    0       5.890176      2.509068      3.435525    -0.000497    0.000958    0.000740
            24    0       4.533366      4.215455      1.014216     0.001783    0.000890   -0.001341
            25    0       6.726814      2.688999      4.906407     0.002169   -0.000366    0.000440
            26    0       7.523752      0.027417      3.328758     0.000382   -0.000451   -0.000546
            27    0       3.562347      1.520853      2.129246    -0.000867    0.001124    0.000090
 Energy
       -167.784447396521
 PlusStress:  xx          yy          zz          yz          xz          xy
         0.00456     0.00188    -0.00469     0.00570     0.00783     0.00001
 Feature   EFS_by	MTP778
 Feature   from	relaxation_OK
 Feature   min_dist	1.634058
 Feature   number	7
END_CFG

BEGIN_CFG
 Size
    27
 Supercell
         5.912222      0.000000      0.000000
        -0.790000      6.248561      0.000000
         1.131873     -1.053342      5.356237
 AtomData:  id type       cartes_x      cartes_y      cartes_z           fx          fy          fz
             1    0       2.040116     -0.315794      1.762283     0.001891   -0.001050    0.002494
             2    0       2.496540      0.922013      4.458305     0.000634   -0.000107   -0.000252
             3    0       3.172695      0.784877      0.866914     0.000195   -0.000324   -0.001091
             4    0       1.829476      1.438114      1.760864    -0.000821    0.000239   -0.000639
             5    0       1.344919      0.562259      3.253147    -0.001068   -0.000570   -0.001302
             6    0       2.816898      2.636727      4.813112    -0.000513    0.001569    0.000725
             7    0       1.881029      3.704337      3.512936    -0.001636   -0.000664   -0.001093
             8    0       0.776143      2.865363      2.305577     0.001378   -0.000286   -0.000138
             9    0       0.891739      2.485579      0.649805    -0.000570   -0.000113    0.001204
            10    0       2.367096      2.159989      3.186579    -0.000226   -0.000765    0.001074
            11    0       0.826686      4.470430      4.492714     0.000160    0.000867    0.001422
            12    0       1.117936      4.176330      1.083434    -0.000339   -0.000906   -0.001277
            13    0       2.612303      4.774586      2.081739    -0.001352    0.001194   -0.000009
            14    0      -0.132934      5.299858      0.903609    -0.001199   -0.001677   -0.002629
            15    0       1.990522      5.468639      3.570442     0.000190    0.001217   -0.000264
            16    0       5.107401      2.471219      3.013972    -0.000659   -0.000742    0.000568
            17    0       4.009955      5.442587      3.282689     0.000168    0.000699    0.000074
            18    0       4.069028      2.209775      0.201484    -0.000053    0.000144   -0.000203
            19    0       3.670286      2.158095      1.913527     0.000478    0.000745   -0.000350
            20    0       4.219589      5.175185      1.604185     0.000093    0.000464    0.000590
            21    0       6.762280      0.545598      5.065373    -0.001218   -0.000025    0.000026
            22    0       5.079599      4.160477      3.997548     0.001454    0.001168    0.000277
            23    0       4.490513      6.142762      0.183852     0.000319   -0.000002   -0.000399
            24    0       5.498593      0.884049      3.798800     0.001858    0.000936    0.000487
            25    0       3.571696      3.674125      1.028216    -0.001068   -0.001017    0.001143
            26    0       4.029949      0.046373      4.529925     0.000862   -0.001349    0.000355
            27    0       4.575195      2.630739      4.659121     0.001042    0.000358   -0.000791
 Energy
       -168.923181038593
 PlusStress:  xx          yy          zz          yz          xz          xy
        -0.00148    -0.00185    -0.00910     0.00108    -0.00044     0.00245
 Feature   EFS_by	MTP778
 Feature   from	relaxation_OK
 Feature   min_dist	1.630491
 Feature   number	8
END_CFG

BEGIN_CFG
 Size
    27
 Supercell
         8.356397      0.000000      0.000000
        -1.043969      5.325477      0.000000
        -0.811595     -0.346313      4.885206
 AtomData:  id type       cartes_x      cartes_y      cartes_z           fx          fy          fz
             1    0       2.704041      5.153354      2.398306    -0.000315    0.002715    0.000428
             2    0      -0.404799      4.196374      4.632367     0.001041    0.000108   -0.001130
             3    0       3.419069     -0.309246      4.518872    -0.000367   -0.001773   -0.000015
             4    0       0.599757      2.940052      3.786336     0.001154    0.000098    0.000050
             5    0       1.597717      0.811397      0.539022     0.000356    0.000304    0.000342
             6    0      -0.147664      1.713467      2.803922    -0.002245    0.000150   -0.000516
             7    0       1.848624      4.983585      0.797297     0.000619    0.000595    0.000569
             8    0       1.085606      1.234632      3.880732    -0.000566   -0.000795    0.000641
             9    0       0.217982      1.771872      1.136773    -0.000237    0.000206    0.001084
            10    0       2.720569      0.881968      3.394927     0.000308    0.001714   -0.000738
            11    0       2.448147      2.313462      4.252278    -0.000467    0.000658   -0.000265
            12    0       3.559646      3.737080      4.636897    -0.000482   -0.000208   -0.001092
            13    0       1.025113      3.263077      0.669393     0.001264   -0.001346    0.000564
            14    0       3.678115      2.601130      1.028304     0.000224   -0.002318    0.000362
            15    0       3.863969      1.344190      4.681018     0.000100    0.000358   -0.000065
            16    0       2.248474      3.744040      3.384761    -0.000370   -0.000336    0.001022
            17    0       2.407243      3.586168      1.690638    -0.001101   -0.001127   -0.001404
            18    0       2.830232      1.158065      1.703660     0.001088   -0.000147   -0.000079
            19    0       5.160747      3.259353      3.903804    -0.000639   -0.001082   -0.000826
            20    0       6.890230      0.686725      3.299997     0.000594   -0.000373   -0.000066
            21    0       5.447341      0.399046      2.390676    -0.001097    0.000201   -0.000185
            22    0       5.480552      1.496936      3.932065    -0.000323    0.000688   -0.000020
            23    0       5.690283      0.524275      0.553371     0.000297    0.000590    0.000022
            24    0       5.616831      4.402810      2.568245     0.000656    0.000042    0.001377
            25    0       5.868634      4.571047      0.574025     0.001004   -0.000750    0.001414
            26    0       7.396952      0.950055      0.144353    -0.000219    0.001147   -0.000608
            27    0       6.309403      4.497923      4.205383    -0.000277    0.000682   -0.000866
 Energy
       -168.269529513408
 PlusStress:  xx          yy          zz          yz          xz          xy
         0.00961     0.01222     0.00963    -0.00585     0.00297     0.00006
 Feature   EFS_by	MTP778
 Feature   from	relaxation_OK
 Feature   min_dist	1.684936
 Feature   number	9
END_CFG

BEGIN_CFG
 Size
    27
 Supercell
         7.592904      0.000000      0.000000
        -0.536321      4.369848      0.000000
        -0.574881     -2.028526      5.399564
 AtomData:  id type       cartes_x      cartes_y      cartes_z           fx          fy          fz
             1    0       0.393313      2.352276      2.793966     0.000004   -0.000029    0.000070
             2    0       0.354218      3.584642      1.689182    -0.000002    0.000010    0.000008