BEGIN_CFG
 Size
    27
 Supercell
    5.5937599999999996e+00 0.0000000000000000e+00 0.0000000000000000e+00
    -1.6446600000000000e-01 5.6391970000000002e+00 0.0000000000000000e+00
    -1.5702149999999999e+00 1.1223300000000000e-01 6.7114089999999997e+00
 AtomData:  id type       cartes_x      cartes_y      cartes_z           fx          fy          fz
    1 0  -2.4597600000000000e-01 4.4574460000000000e+00 2.6170909999999998e+00  0.0000000000000000e+00 0.0000000000000000e+00 0.0000000000000000e+00
    2 0  -1.7641799999999999e-01 4.1860619999999997e+00 4.3450240000000004e+00  0.0000000000000000e+00 0.0000000000000000e+00 0.0000000000000000e+00
    3 0  4.7248899999999999e-01 3.8344179999999999e+00 1.0035449999999999e+00  0.0000000000000000e+00 0.0000000000000000e+00 0.0000000000000000e+00
    4 0  1.5545730000000000e+00 2.6598780000000000e+00 1.8412450000000000e+00  0.0000000000000000e+00 0.0000000000000000e+00 0.0000000000000000e+00
    5 0  4.8783300000000002e-01 1.3553710000000001e+00 4.2953120000000000e+00  0.0000000000000000e+00 0.0000000000000000e+00 0.0000000000000000e+00
    6 0  4.8483900000000002e-01 5.5288320000000004e+00 5.2848009999999999e+00  0.0000000000000000e+00 0.0000000000000000e+00 0.0000000000000000e+00
    7 0  4.6469100000000002e-01 2.8327819999999999e+00 5.2669269999999999e+00  0.0000000000000000e+00 0.0000000000000000e+00 0.0000000000000000e+00
    8 0  8.8072399999999995e-01 5.4236399999999998e+00 3.6006589999999998e+00  0.0000000000000000e+00 0.0000000000000000e+00 0.0000000000000000e+00
    9 0  5.7959600000000000e-01 1.3520760000000001e+00 2.5614859999999999e+00  0.0000000000000000e+00 0.0000000000000000e+00 0.0000000000000000e+00
    10 0  -5.2273400000000003e-01 1.3836139999999999e+00 5.8919600000000001e+00  0.0000000000000000e+00 0.0000000000000000e+00 0.0000000000000000e+00
    11 0  1.3513530000000000e+00 1.1105060000000000e+00 1.0276400000000001e+00  0.0000000000000000e+00 0.0000000000000000e+00 0.0000000000000000e+00
    12 0  1.0779449999999999e+00 5.2946030000000004e+00 7.0211999999999997e-02  0.0000000000000000e+00 0.0000000000000000e+00 0.0000000000000000e+00
    13 0  1.6470980000000000e+00 2.6049730000000002e+00 1.9212099999999999e-01  0.0000000000000000e+00 0.0000000000000000e+00 0.0000000000000000e+00
    14 0  2.3269280000000001e+00 5.4422569999999997e+00 1.3672740000000001e+00  0.0000000000000000e+00 0.0000000000000000e+00 0.0000000000000000e+00
    15 0  3.3716819999999998e+00 4.5854109999999997e+00 6.5957020000000002e+00  0.0000000000000000e+00 0.0000000000000000e+00 0.0000000000000000e+00
    16 0  4.8237649999999999e+00 2.7402489999999999e+00 2.6056499999999999e-01  0.0000000000000000e+00 0.0000000000000000e+00 0.0000000000000000e+00
    17 0  3.8994179999999998e+00 5.6383380000000001e+00 6.8364499999999995e-01  0.0000000000000000e+00 0.0000000000000000e+00 0.0000000000000000e+00
    18 0  3.2682820000000001e+00 1.7053540000000000e+00 5.5560960000000001e+00  0.0000000000000000e+00 0.0000000000000000e+00 0.0000000000000000e+00
    19 0  2.3052229999999998e+00 5.7149979999999996e+00 5.7482620000000004e+00  0.0000000000000000e+00 0.0000000000000000e+00 0.0000000000000000e+00
    20 0  2.4313110000000000e+00 4.9750560000000004e+00 3.0626869999999999e+00  0.0000000000000000e+00 0.0000000000000000e+00 0.0000000000000000e+00
    21 0  4.7911720000000004e+00 1.3976590000000000e+00 1.4456970000000000e+00  0.0000000000000000e+00 0.0000000000000000e+00 0.0000000000000000e+00
    22 0  3.9049930000000002e+00 4.1071830000000000e+00 3.4833840000000000e+00  0.0000000000000000e+00 0.0000000000000000e+00 0.0000000000000000e+00
    23 0  3.5391180000000002e+00 2.4089740000000002e+00 3.9831140000000000e+00  0.0000000000000000e+00 0.0000000000000000e+00 0.0000000000000000e+00
    24 0  4.5766369999999998e+00 1.4275510000000000e+00 3.1254000000000000e+00  0.0000000000000000e+00 0.0000000000000000e+00 0.0000000000000000e+00
    25 0  2.4123640000000002e+00 3.2655810000000001e+00 3.1571039999999999e+00  0.0000000000000000e+00 0.0000000000000000e+00 0.0000000000000000e+00
    26 0  1.9554849999999999e+00 2.3949600000000002e+00 4.6017310000000000e+00  0.0000000000000000e+00 0.0000000000000000e+00 0.0000000000000000e+00
    27 0  3.8587729999999998e+00 5.5759309999999997e+00 2.3646280000000002e+00  0.0000000000000000e+00 0.0000000000000000e+00 0.0000000000000000e+00
 Energy
    0.0000000000000000e+00
 PlusStress:  xx          yy          zz          yz          xz          xy
     -0.0000000000000000e+00 -0.0000000000000000e+00 -0.0000000000000000e+00 -0.0000000000000000e+00 -0.0000000000000000e+00 -0.0000000000000000e+00
END_CFG