BEGIN_CFG
 Size
    12
 Supercell
        10.000000      0.000000      0.000000
         0.000000     10.000000      0.000000
         0.000000      0.000000     10.000000
 AtomData:  id type       cartes_x      cartes_y      cartes_z      charge
             1    0       0.000000      0.000000      0.000000      2.0000
             2    0       5.000000      5.000000      0.000000      2.0000
             3    0       5.000000      0.000000      5.000000      2.0000
             4    0       0.000000      5.000000      5.000000      2.0000
             5    1       2.500000      2.500000      2.500000     -1.0000
             6    1       2.500000      2.500000      7.500000     -1.0000
             7    1       7.500000      7.500000      2.500000     -1.0000
             8    1       7.500000      7.500000      7.500000     -1.0000
             9    1       7.500000      2.500000      7.500000     -1.0000
            10    1       7.500000      2.500000      2.500000     -1.0000
            11    1       2.500000      7.500000      7.500000     -1.0000
            12    1       2.500000      7.500000      2.500000     -1.0000
END_CFG

