BEGIN_CFG
 Size
    52
 Supercell
       284.529100      0.000000      0.000000
         0.000000    402.506001      0.000000
         0.000000      0.000000    217.630220
 AtomData:  id type       cartes_x      cartes_y      cartes_z           fx          fy          fz      charge
             1    4     133.877754    200.353777    108.815110    -0.252482    0.072505    0.000000      0.2455
             2    1     132.709954    201.630097    108.815110     0.335786   -0.219572    0.000000     -0.3529
             3    0     135.205244    201.478037    108.815110    -0.123413   -0.294649    0.000000     -0.1500
             4    5     133.298674    202.859707    108.815110     0.311618    0.281279    0.000000      0.1195
             5    2     134.734514    202.764737    108.815110    -0.554330   -0.083818    0.000000     -0.1130
             6    3     135.387224    203.626987    108.815110    -0.001543    0.041652    0.000000      0.1094
             7    6     132.507924    204.156247    108.815110     0.385666   -0.103873    0.000000     -0.2301
             8    8     133.336984    205.450917    108.815110    -0.518849   -0.156837    0.000000     -0.1909
             9    9     131.851274    204.144157    109.686000    -0.125984    0.111072    0.146553      0.1127
            10    9     131.851274    204.144157    107.944220    -0.125984    0.111072   -0.146553      0.1127
            11    8     132.460334    206.711787    108.815110     0.615008   -0.062735    0.000000     -0.1792
            12    9     133.989674    205.464907    107.941090     0.104387    0.010284   -0.156837      0.1010
            13    9     133.989674    205.464907    109.689130     0.104387    0.010284    0.156837      0.1010
            14    8     133.289854    208.003767    108.815110    -0.672087   -0.020055    0.000000     -0.1716
            15    9     131.805314    206.699837    109.687480    -0.111072   -0.002057    0.182034      0.0916
            16    9     131.805314    206.699837    107.942740    -0.111072   -0.002057   -0.182034      0.0916
            17    8     132.413774    209.264497    108.815110     0.574899    0.092046    0.000000     -0.1781
            18    9     133.945304    208.015877    107.942970     0.105415    0.010799   -0.183063      0.0912
            19    9     133.945304    208.015877    109.687250     0.105415    0.010799    0.183063      0.0912
            20    7     133.241704    210.554477    108.815110    -0.272023   -0.169179    0.000000     -0.3192
            21    9     131.758274    209.257607    109.687080    -0.095645   -0.050908    0.163522      0.0933
            22    9     131.758274    209.257607    107.943140    -0.095645   -0.050908   -0.163522      0.0933
            23    9     133.880724    210.615147    109.696620     0.087932   -0.015427    0.097702      0.1029
            24    9     132.594984    211.432297    108.815110    -0.043709    0.111586    0.000000      0.1003
            25    9     133.880724    210.615147    107.933600     0.087932   -0.015427   -0.097702      0.1029
            26    4     137.806754    202.275877    108.815110     0.304419   -0.070448    0.000000      0.2427
            27    0     136.588774    201.031067    108.815110     0.232428    0.073019    0.000000     -0.2174
            28    1     139.085714    201.117767    108.815110    -0.177920    0.037024    0.000000     -0.3050
            29    5     137.165204    199.777837    108.815110     0.350184   -0.478225    0.000000      0.1051
            30    2     138.605284    199.844017    108.815110    -0.241684    0.426803    0.000000     -0.0772
            31    3     139.257144    198.980607    108.815110    -0.084846   -0.059135    0.000000      0.1002
            32    6     136.409564    198.455027    108.815110     0.369725    0.303905    0.000000     -0.2458
            33    8     137.259564    197.172807    108.815110    -0.420118    0.206717    0.000000     -0.1958
            34    9     135.758684    198.444877    107.940390    -0.208259   -0.104387   -0.115185      0.1276
            35    9     135.758684    198.444877    109.689830    -0.208259   -0.104387    0.115185      0.1276
            36    8     136.399634    195.900367    108.815110     0.572842    0.086389    0.000000     -0.1797
            37    9     137.911044    197.166707    109.690040     0.114671   -0.012856    0.151181      0.0993
            38    9     137.911044    197.166707    107.940180     0.114671   -0.012856   -0.151181      0.0993
            39    8     137.244984    194.618607    108.815110    -0.666430    0.020569    0.000000     -0.1711
            40    9     135.744114    195.904017    107.942990    -0.106958   -0.000514   -0.177920      0.0940
            41    9     135.744114    195.904017    109.687230    -0.106958   -0.000514    0.177920      0.0940
            42    8     136.383944    193.347517    108.815110     0.570271   -0.081247    0.000000     -0.1783
            43    9     137.900274    194.614307    109.687390     0.109529   -0.009256    0.185120      0.0903
            44    9     137.900274    194.614307    107.942830     0.109529   -0.009256   -0.185120      0.0903
            45    7     137.226834    192.067207    108.815110    -0.274080    0.169693    0.000000     -0.3192
            46    9     135.728304    193.347157    107.943210    -0.094617    0.047823   -0.163008      0.0940
            47    9     135.728304    193.347157    109.687010    -0.094617    0.047823    0.163008      0.0940
            48    9     137.866524    192.014037    107.933600     0.087932    0.015427   -0.097702      0.1026
            49    9     136.590544    191.181697    108.815110    -0.041652   -0.107986    0.000000      0.1006
            50    9     137.866524    192.014037    109.696620     0.087932    0.015427    0.097702      0.1026
            51    3     131.658034    201.376337    108.815110     0.022626    0.106444    0.000000      0.1214
            52    3     140.110944    201.464477    108.815110    -0.034967   -0.118785    0.000000      0.1290
 Energy
     -42888.611066099998
END_CFG

