BEGIN_CFG
 Size
    52
 Supercell
       284.529100      0.000000      0.000000
         0.000000    402.506001      0.000000
         0.000000      0.000000    217.630220
 AtomData:  id type       cartes_x      cartes_y      cartes_z           fx          fy          fz      charge
             1    4     133.703214    199.181497    108.982210    -0.047308   -1.363199   -0.375895      0.2567
             2    1     132.563314    200.214177    109.717820    -1.368342   -0.215973    0.274080     -0.3438
             3    0     134.637834    200.449497    108.299630    -1.041811    1.496383    2.266686     -0.1825
             4    5     132.881154    201.531877    109.511630    -0.060678    0.657174    0.007199      0.1183
             5    2     134.108084    201.650697    108.804100     0.233456   -1.646021   -1.370399     -0.0989
             6    3     134.567994    202.555847    108.512810     0.316760    1.115345   -0.091531      0.0980
             7    6     131.976774    202.706427    109.900070     0.424232   -1.500496   -2.552078     -0.2325
             8    8     131.062614    203.248057    108.773340     2.724856   -0.151695   -1.064437     -0.1822
             9    9     132.507474    203.528917    110.249410     1.359086    1.386854    1.023300      0.1092
            10    9     131.406884    202.314977    110.665310    -1.576087   -0.504451    1.948897      0.1028
            11    8     131.740464    204.408757    107.979630    -0.671572   -0.189233    0.905543     -0.1955
            12    9     130.195194    203.553207    109.219280    -2.639496    0.998617    1.056210      0.1028
            13    9     130.838134    202.458257    108.086890    -0.314189   -0.672601   -0.466398      0.1011
            14    8     131.782654    205.738297    108.796160     1.234130   -1.455759    0.902972     -0.1799
            15    9     131.301624    204.496217    106.973400     0.062735    0.223172    0.337843      0.0938
            16    9     132.731414    204.035477    107.867150     1.158540   -0.022626   -0.599582      0.1050
            17    8     133.183774    206.335787    109.095950    -1.564260    0.469484   -0.921484     -0.1788
            18    9     131.411664    205.476537    109.797720    -0.510621    0.352241   -0.142953      0.0908
            19    9     131.168784    206.484117    108.356500    -0.780587    0.773388   -0.340928      0.0979
            20    7     133.091704    207.648887    109.800900    -0.139868    2.401411   -1.543177     -0.3195
            21    9     133.604924    206.713177    108.199070     1.069065   -0.919427   -1.527750      0.1074
            22    9     133.783654    205.610677    109.625490     0.546103   -0.154266   -0.012856      0.0976
            23    9     132.333164    208.389807    109.325040     1.524665   -1.137971    0.052451      0.0847
            24    9     134.076384    208.156507    109.930960    -0.674144   -0.300819   -0.212887      0.0982
            25    9     132.655264    207.559837    110.711680    -1.078321   -0.442744    3.458650      0.1094
            26    4     135.630314    201.030657    105.903120     0.735850   -0.012341   -1.156483      0.2477
            27    0     135.774404    200.266357    107.427160    -0.160951   -0.090503   -0.125470     -0.2324
            28    1     137.135444    200.333727    105.304800    -0.626835    0.598553    0.762075     -0.3014
            29    5     136.900274    199.505847    107.511160     0.953880   -1.045925    0.816583      0.1369
            30    2     137.718604    199.595427    106.335370    -2.223491    1.331832   -1.701043     -0.0948
            31    3     138.612654    199.090447    106.147630     1.416678   -0.890116    0.167636      0.0981
            32    6     137.332854    198.604987    108.701580     0.562558    0.341957   -1.079350     -0.2324
            33    8     137.649904    199.386027    109.966380     0.520392    1.097347    1.288123     -0.1761
            34    9     138.254104    198.118367    108.340670    -0.131126   -0.010799    0.241170      0.0976
            35    9     136.635694    197.788587    108.886800    -0.310589    0.034967    0.009256      0.1200
            36    8     138.540284    198.631287    111.056890     0.475654   -0.181520   -1.258298     -0.1899
            37    9     136.704194    199.790457    110.413850     0.726080   -0.415490   -0.259167      0.1088
            38    9     138.225414    200.284387    109.636670    -0.420633   -0.434002    0.303905      0.0964
            39    8     140.053284    199.014667    111.031980    -0.866462    0.114157    1.125629     -0.1909
            40    9     138.449724    197.553307    110.849440     0.011827    0.093074    0.175349      0.0864
            41    9     138.255574    198.771807    112.091780    -0.762075    0.270480    0.139868      0.1022
            42    8     140.304734    200.543097    111.341960    -0.054507   -1.361657    0.683400     -0.1741
            43    9     140.505534    198.648527    110.134290     0.250940    0.585698   -1.374512      0.0962
            44    9     140.636484    198.346897    111.714560    -0.752819    0.727623    0.390294      0.0882
            45    7     141.575544    200.720827    112.162280     1.643964    0.130098   -0.159923     -0.3225
            46    9     139.493564    201.098197    111.825190    -0.429889   -0.935882    0.811441      0.0985
            47    9     140.237774    201.113137    110.452140     1.033584    0.424746   -1.531864      0.1063
            48    9     142.435244    200.132087    111.759440    -0.794471   -0.280765    0.179463      0.0979
            49    9     141.465744    200.413107    113.252930     0.041138    0.691627   -1.332346      0.1051
            50    9     142.037564    201.722027    112.009580    -0.772874   -0.099759    0.828410      0.0965
            51    3     131.604984    199.763417    110.128670     1.521065    0.765161   -0.375381      0.1313
            52    3     137.390854    200.623587    104.249750     0.225229   -0.646890    1.419764      0.1398
 Energy
     -42885.920067300001
END_CFG

