BEGIN_CFG
 Size
    52
 Supercell
        28.462900      0.000000      0.000000
         0.000000     40.145100      0.000000
         0.000000      0.000000     21.767000
 AtomData:  id type       cartes_x      cartes_y      cartes_z           fx          fy          fz      charge
             1    2      12.227290     20.951801     10.625292    12.046800    5.760560    0.120454     -0.0567
             2    0      11.136740     19.644826     10.824130    -1.558350    5.200270  -15.371200     -0.0097
             3    0      13.596520     19.896701     10.813634    -1.854030    3.518200    4.623630     -0.0097
             4    0      11.767630     18.450010     10.999116   -25.254300   12.168000    8.733470     -0.0207
             5    0      13.180874     18.593960     11.007539    23.600700    9.132570   -4.375240     -0.1537
             6    1      13.891194     17.776020     11.047172    -5.281130   -2.240780    3.592750      0.1423
             7    0      10.943470     17.200080     11.146914   -17.840400    3.040310   43.229600     -0.0507
             8    0      11.693210     15.887490     11.141464    -9.770100  -15.920500  -18.816900     -0.1257
             9    1      10.187320     17.237960     10.414911   -13.487800   -5.038260  -23.475300      0.0543
            10    1      10.312070     17.279230     12.098770    25.367100   -1.963040  -27.156300      0.0543
            11    0      10.806280     14.634340     10.983218     3.486930   20.311300  -49.460300     -0.1257
            12    1      12.113150     15.822790     12.092900    21.581800   -3.601250   26.851200      0.0543
            13    1      12.491900     15.863320     10.393218    -0.956304    2.684020    2.727130      0.0543
            14    0      11.611710     13.342570     11.103600   -22.354900  -57.093600   38.853100     -0.1257
            15    1      10.349160     14.729710      9.934760     9.997850   -8.747660   37.202000      0.0543
            16    1      10.026030     14.620320     11.719784   -11.219700    2.570970    5.782730      0.0543
            17    0      10.719100     12.066940     10.729620   -42.987000   46.631400   31.991600     -0.1257
            18    1      12.065160     13.220610     12.140430   -16.790300    4.989420  -27.553500      0.0543
            19    1      12.431470     13.277970     10.467322    26.807400    9.790410  -23.227100      0.0543
            20    0      11.399310     10.691300     10.721219   -16.098500  -10.117400   13.419500     -0.1857
            21    1      10.248800     12.312820      9.743010     7.708630  -12.882200   15.915000      0.0543
            22    1       9.847680     12.070180     11.499497    35.439500   -5.337330  -33.973100      0.0543
            23    1      12.094560     10.676990      9.907551     8.191650   -8.527840  -10.689200      0.0543
            24    1      10.690560      9.820200     10.696888    10.761400   20.549000   -8.830250      0.0543
            25    1      11.944510     10.508990     11.638536     6.259830    4.943170    3.412210      0.0543
            26    2      16.184740     19.209547     10.903525     4.998330   -7.476930   -2.045960     -0.0567
            27    0      14.957140     20.424484     10.812233     8.468910    7.803050   -6.421220     -0.0097
            28    0      17.479340     20.341153     10.822223    -2.761440  -35.805900   -3.459320     -0.0097
            29    0      15.549730     21.688040     10.725288    -5.081250  -38.288700   11.599700     -0.0207
            30    0      16.987060     21.586560     10.785936     1.546150   35.186500   -0.092686     -0.1537
            31    1      17.614880     22.468300     10.836681     3.687060   -4.622570   -3.949420      0.1423
            32    0      14.831070     23.000020     10.757437   -27.800500    6.791160   13.360300     -0.0507
            33    0      15.715460     24.247910     10.928191    15.234400    8.470630   14.814400     -0.1257
            34    1      14.124311     22.973560     11.629478    13.038000   -1.491480  -17.569300      0.0543
            35    1      14.186071     23.052730      9.864270     7.942950    3.548760    4.990880      0.0543
            36    0      14.839900     25.511390     11.129825    20.714600   -7.715580   -6.560620     -0.1257
            37    1      16.388780     24.381730     10.058165   -10.221700   -1.911620    6.883910      0.0543
            38    1      16.410300     24.124420     11.804809   -17.599500    3.442140  -15.958800      0.0543
            39    0      15.637210     26.796560     11.130642    32.419400   17.545200    7.356490     -0.1257
            40    1      14.259897     25.514100     12.040600    -6.093480   -8.878150    5.155680      0.0543
            41    1      14.179978     25.539160     10.292281   -15.955400    1.860420   -8.557640      0.0543
            42    0      14.788060     28.025710     10.836013   -56.670200   -5.383880  -17.504000     -0.1257
            43    1      16.465130     26.824840     10.397424   -10.046600  -10.251200    3.935050      0.0543
            44    1      16.169720     26.903130     12.087930    -7.659550    0.492838   -3.398230      0.0543
            45    0      15.491930     29.354590     10.902764    -1.163960   13.777600    9.128850     -0.1857
            46    1      13.822976     28.118250     11.422031    28.159400  -10.158600   -7.354100      0.0543
            47    1      14.399821     27.870330      9.792510     9.535710    7.354510   19.497700      0.0543
            48    1      15.650180     29.683000     11.967160    -6.360720   -0.794292  -23.827900      0.0543
            49    1      14.937440     30.070400     10.265571     3.549600   -0.205056   16.481300      0.0543
            50    1      16.442380     29.289480     10.420393    15.895800   -1.874960   -2.403770      0.0543
            51    1      10.102530     19.845099     10.578107    -3.327490   -5.079080    8.820600      0.1423
            52    1      18.489150     19.932710     10.795251    -0.245032   13.845400    3.551980      0.1423
 Energy
         48.780064000000
END_CFG

