BEGIN_CFG
 Size
    4
 Supercell
         2.679170      0.000000      0.000000
        -1.339590      2.320230      0.000000
         1.339590     -0.773410      8.750140
 AtomData:  id type       cartes_x      cartes_y      cartes_z           fx          fy          fz
             1    0       0.000000      0.000000      0.000000    -0.000393    0.000230   -0.434347
             2    0       1.339590      0.773410      6.562600     0.000388   -0.000227    0.436487
             3    1       1.339590      0.773410      2.187530     0.001067   -0.000620   -1.439312
             4    1       2.679170     -0.000000      4.375070    -0.001063    0.000617    1.437172
 Energy
        -17.856510690000
 PlusStress:  xx          yy          zz          yz          xz          xy
         1.37120     1.37867     0.85722     0.00097    -0.00167     0.00652
END_CFG

BEGIN_CFG
 Size
    5
 Supercell
         1.843160      1.843160      0.000000
        -5.529490      5.529490      7.372650
         0.000000     -1.843160      1.843160
 AtomData:  id type       cartes_x      cartes_y      cartes_z           fx          fy          fz
             1    0       0.000000      0.000000      0.000000    -0.406167    0.406166    0.404856
             2    0       0.000000      1.843160      1.843160     0.015839   -0.015842   -0.015741
             3    0      -1.843160      1.843160      3.686330    -0.015802    0.015817    0.014773
             4    0      -1.843160      3.686330      5.529490     0.406165   -0.406186   -0.404047
             5    1      -3.686330      3.686330      7.372650    -0.000035    0.000044    0.000159
 Energy
        -20.160222190000
 PlusStress:  xx          yy          zz          yz          xz          xy
         1.45434     1.45444     1.41561    -0.40829     0.40818     0.40433
END_CFG

BEGIN_CFG
 Size
    4
 Supercell
         2.679170      0.000000      0.000000
         0.000000      4.640460      0.000000
         0.000000      0.000000      4.375070
 AtomData:  id type       cartes_x      cartes_y      cartes_z           fx          fy          fz
             1    0       0.000000      0.000000      0.000000     0.000020   -0.207288   -0.000029
             2    0       0.000000      3.093640      2.187530     0.000019    0.206662    0.000028
             3    1       1.339590      2.320230      0.000000    -0.000016    0.570245   -0.000041
             4    1       1.339590      0.773410      2.187530    -0.000023   -0.569619    0.000042
 Energy
        -18.238745160000
 PlusStress:  xx          yy          zz          yz          xz          xy
         1.16510    -0.29141     0.79614     0.00000     0.00002    -0.00003
END_CFG

BEGIN_CFG
 Size
    6
 Supercell
         2.717830      0.000000      0.000000
         1.358920      7.061130      0.000000
         0.000000      0.000000      4.438200
 AtomData:  id type       cartes_x      cartes_y      cartes_z           fx          fy          fz
             1    0       0.000000      0.000000      0.000000     0.000230    0.008970    0.000000
             2    0       2.717830      3.138280      2.219100    -0.000019   -0.009686   -0.000000
             3    1       1.358920      2.353710      0.000000     0.001549   -0.287334   -0.000000
             4    1       2.717830      4.707420      0.000000    -0.001683    0.342019    0.000001
             5    1       1.358920      0.784570      2.219100    -0.001680    0.287774   -0.000000
             6    1       1.358920      5.491990      2.219100     0.001603   -0.341744   -0.000001
 Energy
        -28.590298890000
 PlusStress:  xx          yy          zz          yz          xz          xy
         0.86312     0.60219     1.15492     0.00000    -0.00000     0.00580
END_CFG

BEGIN_CFG
 Size
    4
 Supercell
         2.736760      0.000000      0.000000
        -1.368380      2.370100      0.000000
         0.000000      0.000000      8.938210
 AtomData:  id type       cartes_x      cartes_y      cartes_z           fx          fy          fz
             1    0       0.000000      0.000000      0.000000     0.000001    0.000001    0.000261
             2    1       1.368380      0.790030      2.234550    -0.000000    0.000006   -0.994839
             3    1       0.000000      1.580070      4.469100    -0.000000   -0.000012    0.000074
             4    1       1.368380      0.790030      6.703660    -0.000000    0.000005    0.994505
 Energy
        -19.417845550000
 PlusStress:  xx          yy          zz          yz          xz          xy
         0.44371     0.44380     0.28315    -0.00000     0.00000    -0.00001
END_CFG

BEGIN_CFG
 Size
    6
 Supercell
         2.717830      0.000000      0.000000
        -1.358920      2.353710      0.000000
         0.000000      0.000000     13.314600
 AtomData:  id type       cartes_x      cartes_y      cartes_z           fx          fy          fz
             1    0       0.000000      0.000000      0.000000     0.000006   -0.000001    0.324428
             2    0       1.358920      0.784570      2.219100    -0.000006   -0.000001   -0.325591
             3    1       0.000000      0.000000      4.438200     0.000005    0.000001   -1.141843
             4    1       0.000000      0.000000      8.876400     0.000006    0.000001   -0.024596
             5    1       1.358920      0.784570      6.657300    -0.000006    0.000001    0.024858
             6    1       1.358920      0.784570     11.095500    -0.000005   -0.000001    1.142744
 Energy
        -28.121247620000
 PlusStress:  xx          yy          zz          yz          xz          xy
         1.70451     1.70448     2.41997    -0.00000     0.00000     0.00001
END_CFG

BEGIN_CFG
 Size
    6
 Supercell
         2.639360      0.000000      0.000000
         1.319680      6.857260      0.000000
         0.000000      0.000000      4.310060
 AtomData:  id type       cartes_x      cartes_y      cartes_z           fx          fy          fz
             1    0       0.000000      0.000000      0.000000    -0.001609   -0.663272   -0.000000
             2    0       2.639360      4.571510      0.000000    -0.000365    0.301179    0.000001
             3    0       2.639360      3.047670      2.155030     0.001441    0.663538    0.000000
             4    0       1.319680      5.333420      2.155030     0.000191   -0.301480   -0.000001
             5    1       1.319680      2.285750      0.000000    -0.000689    0.805885    0.000000
             6    1       1.319680      0.761920      2.155030     0.001032   -0.805850   -0.000001
 Energy
        -25.611006990000
 PlusStress:  xx          yy          zz          yz          xz          xy
         2.60181     0.52359     2.26756    -0.00000    -0.00000     0.02406
END_CFG

BEGIN_CFG
 Size
    6
 Supercell
         1.458250     -1.458250      1.458250
         1.458250      1.458250     -1.458250
         0.000000      8.749520      8.749520
 AtomData:  id type       cartes_x      cartes_y      cartes_z           fx          fy          fz
             1    0       0.000000      0.000000      0.000000     0.000002    0.544142    0.544142
             2    0       1.458250      1.458250      1.458250    -0.000000   -0.011298   -0.011300
             3    0       0.000000      2.916510      2.916510     0.000001   -0.000730   -0.000729
             4    0       1.458250      4.374760      4.374760     0.000000    0.010724    0.010725
             5    0       0.000000      5.833010      5.833010    -0.000001   -0.543614   -0.543613
             6    1       1.458250      7.291270      7.291270    -0.000002    0.000776    0.000776
 Energy
        -23.579410310000
 PlusStress:  xx          yy          zz          yz          xz          xy
         1.85458     1.93800     1.93799    -1.06768    -0.00001     0.00001
END_CFG

BEGIN_CFG
 Size
    4
 Supercell
         0.000000      0.000000      3.870360
        -1.935180      3.870360      1.935180
        -3.870360      0.000000      0.000000
 AtomData:  id type       cartes_x      cartes_y      cartes_z           fx          fy          fz
             1    0       0.000000      0.000000      0.000000    -0.000001    0.000000   -0.000001
             2    1      -3.870360      1.935180      1.935180     0.001275   -0.000001    0.001269
             3    1      -1.935180      0.000000      1.935180    -0.000001    0.000002    0.000000
             4    1      -1.935180      1.935180      3.870360    -0.001274   -0.000001   -0.001269
 Energy
        -19.623414700000
 PlusStress:  xx          yy          zz          yz          xz          xy
        -0.14591     0.28423    -0.14591     0.00259     0.00174    -0.00258
END_CFG

BEGIN_CFG
 Size
    6
 Supercell
         1.921800      1.921800      0.000000
        -7.687190      7.687190      7.687190
         0.000000     -1.921800      1.921800
 AtomData:  id type       cartes_x      cartes_y      cartes_z           fx          fy          fz
             1    0       0.000000      0.000000      0.000000    -0.163396    0.163397    0.163396
             2    0       0.000000      1.921800      1.921800     0.163483   -0.163485   -0.163484
             3    1      -1.921800      1.921800      3.843600     0.626000   -0.625999   -0.625998
             4    1      -3.843600      3.843600      3.843600    -0.000909    0.000896    0.000896
             5    1      -3.843600      5.765390      5.765390     0.001049   -0.001025   -0.001026
             6    1      -5.765390      5.765390      7.687190    -0.626228    0.626216    0.626216
 Energy
        -28.247741710000
 PlusStress:  xx          yy          zz          yz          xz          xy
         1.57196     1.57198     1.57196    -0.08659     0.08655     0.08659
END_CFG

BEGIN_CFG
 Size
    6
 Supercell
         2.639360      0.000000      0.000000
        -1.319680      2.285750      0.000000
         0.000000      1.523840     12.930200
 AtomData:  id type       cartes_x      cartes_y      cartes_z           fx          fy          fz
             1    0       0.000000      0.000000      0.000000    -0.000001    0.000219    0.009005
             2    0       1.319680      0.761920      2.155030    -0.000001    0.002511   -0.574530
             3    0       0.000000      1.523840      8.620120     0.000001    0.001902    0.530626
             4    0       0.000000      3.047670     10.775100     0.000003   -0.002245    0.000881
             5    1      -0.000000      3.047670      6.465090    -0.000001   -0.001191    1.658957
             6    1       1.319680      2.285750      4.310060    -0.000001   -0.001195   -1.624940
 Energy
        -25.118859610000
 PlusStress:  xx          yy          zz          yz          xz          xy
         2.81126     2.82849     2.28093    -0.01052     0.00001    -0.00006
END_CFG

BEGIN_CFG
 Size
    4
 Supercell
         1.851910      1.851910      0.000000
        -3.703820      1.851910      1.851910
         1.851910     -1.851910      3.703820
 AtomData:  id type       cartes_x      cartes_y      cartes_z           fx          fy          fz
             1    0       0.000000      0.000000      0.000000     0.033279   -0.034689    0.314301
             2    0      -0.000000      1.851910      1.851910    -0.000052    0.000050   -0.000466
             3    0       1.851910      0.000000      1.851910    -0.033268    0.034680   -0.314344
             4    1       0.000000      0.000000      3.703820     0.000041   -0.000041    0.000508
 Energy
        -16.652033640000
 PlusStress:  xx          yy          zz          yz          xz          xy
         1.23185     1.19756     0.41518    -0.04005     0.04241     0.69678
END_CFG

BEGIN_CFG
 Size
    3
 Supercell
         1.525330     -1.525330      1.525330
         1.525330      1.525330     -1.525330
         1.525330      4.575990      4.575990
 AtomData:  id type       cartes_x      cartes_y      cartes_z           fx          fy          fz
             1    0       0.000000      0.000000      0.000000    -0.000007    0.000220    0.000215
             2    1       1.525330      1.525330      1.525330    -0.000519   -0.786406   -0.786403
             3    1       3.050660      3.050660      3.050660     0.000526    0.786186    0.786187
 Energy
        -14.092637780000
 PlusStress:  xx          yy          zz          yz          xz          xy
         0.80162     0.75227     0.75227    -0.48644     0.00520     0.00520
END_CFG

BEGIN_CFG
 Size
    6
 Supercell
         0.000000      0.000000      2.962580
         0.000000      2.962580      0.000000
        -8.887750      0.000000      0.000000
 AtomData:  id type       cartes_x      cartes_y      cartes_z           fx          fy          fz
             1    0       0.000000      0.000000      0.000000    -0.850539    0.000004    0.000003
             2    0      -1.481290      1.481290      1.481290    -0.004471    0.000000   -0.000002
             3    0      -2.962580      0.000000      0.000000     0.003793   -0.000000    0.000005
             4    0      -4.443870      1.481290      1.481290     0.850668   -0.000001   -0.000001
             5    1      -5.925160      0.000000      0.000000     2.038892    0.000001   -0.000002
             6    1      -7.406460      1.481290      1.481290    -2.038344   -0.000004   -0.000003
 Energy
        -25.125660010000
 PlusStress:  xx          yy          zz          yz          xz          xy
         2.06419     2.43498     2.43502    -0.00002     0.00001    -0.00000
END_CFG

BEGIN_CFG
 Size
    6
 Supercell
        -1.299160      2.250200      0.000000
        -3.897470     -2.250200      0.000000
        -1.299160      0.750068      6.364540
 AtomData:  id type       cartes_x      cartes_y      cartes_z           fx          fy          fz
             1    0       0.000000      0.000000      0.000000     0.138123    0.079947    0.311499
             2    0      -2.598310      0.000000      0.000000    -0.135354   -0.077994    0.504915
             3    0      -3.897470      0.750070      2.121510    -0.125430   -0.072358   -0.562399
             4    0      -1.299160      0.750070      2.121510     0.137791    0.079802   -0.295457
             5    0      -5.196620      0.000000      4.243030     0.013071    0.007736    0.015565
             6    1      -2.598310     -0.000000      4.243030    -0.028202   -0.017132    0.025877
 Energy
        -24.034601810000
 PlusStress:  xx          yy          zz          yz          xz          xy
         1.14274     2.14292     1.14529     0.04584     0.06247    -0.86757
END_CFG

BEGIN_CFG
 Size
    6
 Supercell
         2.598310      0.000000      0.000000
        -1.299160      2.250200      4.243030
         0.000000     -4.500410      4.243030
 AtomData:  id type       cartes_x      cartes_y      cartes_z           fx          fy          fz
             1    0       0.000000      0.000000      0.000000    -0.000448   -0.170875    0.468369
             2    0      -0.000000     -0.000000      4.243030    -0.001710    0.147415   -0.243744
             3    0       1.299160     -2.250200      4.243030     0.000864    0.034870   -0.221833
             4    0       1.299160      0.750070      2.121510     0.001034   -0.500802    0.015104
             5    0       0.000000     -1.500140      2.121510    -0.000036    0.529198   -0.009751
             6    1       0.000000     -1.500140      6.364540     0.000297   -0.039805   -0.008145
 Energy
        -24.024596060000
 PlusStress:  xx          yy          zz          yz          xz          xy
         2.24894     0.51044     1.29906     0.04997    -0.01856     0.00211
END_CFG

BEGIN_CFG
 Size
    2
 Supercell
         1.894460      1.894460      0.000000
        -1.894460      1.894460      0.000000
         0.000000      0.000000      3.788920
 AtomData:  id type       cartes_x      cartes_y      cartes_z           fx          fy          fz
             1    0       0.000000      0.000000      0.000000    -0.000000    0.000001   -0.000000
             2    1       0.000000      1.894460      1.894460     0.000000   -0.000001    0.000000
 Energy
         -9.134842510000
 PlusStress:  xx          yy          zz          yz          xz          xy
         0.52309     0.52309    -0.31334     0.00000    -0.00000    -0.00000
END_CFG

BEGIN_CFG
 Size
    1
 Supercell
         1.434460      1.434460     -1.434460
        -1.434460      1.434460      1.434460
         1.434460      1.434460      1.434460
 AtomData:  id type       cartes_x      cartes_y      cartes_z           fx          fy          fz
             1    0       0.000000      0.000000      0.000000    -0.000001    0.000000   -0.000003
 Energy
         -3.692835790000
 PlusStress:  xx          yy          zz          yz          xz          xy
         0.12392     0.12393     0.12393     0.00011    -0.00011     0.00011
END_CFG

BEGIN_CFG
 Size
    6
 Supercell
         2.679170      0.000000      0.000000
         1.339590      6.960690      0.000000
         0.000000      0.000000      4.375070
 AtomData:  id type       cartes_x      cartes_y      cartes_z           fx          fy          fz
             1    0       0.000000      0.000000      0.000000    -0.000671   -0.548302   -0.000031
             2    0       2.679170      4.640460      0.000000     0.000285    0.456358   -0.000025
             3    0       1.339590      5.413870      2.187530    -0.000740    0.073797    0.000017
             4    1       1.339590      2.320230      0.000000     0.000110    0.094175   -0.000078
             5    1       1.339590      0.773410      2.187530    -0.001223   -1.374350    0.000052
             6    1       2.679170      3.093640      2.187530     0.002240    1.298322    0.000064
 Energy
        -26.998070350000
 PlusStress:  xx          yy          zz          yz          xz          xy
         2.46241     0.43043     2.81617    -0.00000    -0.00000    -0.00056
END_CFG

BEGIN_CFG
 Size
    6
 Supercell
         2.755420      0.000000      0.000000
        -1.377710      2.386270      0.000000
         0.000000      0.000000     13.498800
 AtomData:  id type       cartes_x      cartes_y      cartes_z           fx          fy          fz
             1    0       0.000000      0.000000      0.000000     0.000001   -0.000004    0.000232
             2    1       0.000000      0.000000      4.499590     0.000001   -0.000010    0.050817
             3    1       0.000000      0.000000      8.999170     0.000001   -0.000009   -0.051082
             4    1       1.377710      0.795420      2.249790    -0.000001    0.000009   -0.920371
             5    1       1.377710      0.795420      6.749380    -0.000001    0.000008   -0.000462
             6    1       1.377710      0.795420     11.249000    -0.000002    0.000005    0.920866
 Energy
        -29.715595660000
 PlusStress:  xx          yy          zz          yz          xz          xy
         0.24142     0.24122     1.48614    -0.00000    -0.00000    -0.00002
END_CFG

BEGIN_CFG
 Size
    6
 Supercell
         2.639360      0.000000      0.000000
        -1.319680      2.285750      0.000000
         0.000000      1.523840     12.930200
 AtomData:  id type       cartes_x      cartes_y      cartes_z           fx          fy          fz
             1    0       0.000000      0.000000      0.000000    -0.000001   -0.000001    0.000701
             2    0      -0.000000      3.047670      6.465090     0.000002    0.000004    0.000183
             3    0       1.319680      0.761920      2.155030    -0.000003    0.000160   -0.636905
             4    0       0.000000      3.047670     10.775100     0.000004   -0.000155    0.637397
             5    1       0.000000      1.523840      8.620120    -0.000003    0.000671   -0.012684
             6    1       1.319680      2.285750      4.310060     0.000001   -0.000679    0.011308
 Energy
        -25.502033770000
 PlusStress:  xx          yy          zz          yz          xz          xy
         2.53947     2.54237     0.30693    -0.00251    -0.00000    -0.00007
END_CFG

BEGIN_CFG
 Size
    6
 Supercell
        -3.092860      0.000000      3.092860
        -3.092860      3.092860     -3.092860
         0.000000     -3.092860     -3.092860
 AtomData:  id type       cartes_x      cartes_y      cartes_z           fx          fy          fz
             1    0       0.000000      0.000000      0.000000     0.000099   -0.000099    0.000099
             2    1      -1.546430     -1.546430     -1.546430     0.241884   -0.241884    0.241888
             3    1      -3.092860      0.000000     -0.000000     0.015832   -0.015831    0.015832
             4    1      -1.546430      1.546430     -1.546430    -0.000081    0.000081   -0.000081
             5    1      -3.092860      0.000000     -3.092860    -0.015872    0.015872   -0.015872
             6    1      -4.639290      1.546430     -1.546430    -0.241862    0.241861   -0.241865
 Energy
        -29.658184370000
 PlusStress:  xx          yy          zz          yz          xz          xy
         0.79247     0.79247     0.79246    -0.05889     0.05888    -0.05889
END_CFG

BEGIN_CFG
 Size
    1
 Supercell
         1.974250      0.000000      1.974250
         1.974250      1.974250      0.000000
        -1.974250      1.974250      0.000000
 AtomData:  id type       cartes_x      cartes_y      cartes_z           fx          fy          fz
             1    1       0.000000      0.000000      0.000000    -0.000000    0.000000    0.000000
 Energy
         -5.214953270000
 PlusStress:  xx          yy          zz          yz          xz          xy
        -0.14891    -0.14815    -0.13986    -0.00000    -0.00128     0.00000
END_CFG

BEGIN_CFG
 Size
    6
 Supercell
         2.679170      0.000000      0.000000
        -1.339590      2.320230      0.000000
         0.000000      0.000000     13.125200
 AtomData:  id type       cartes_x      cartes_y      cartes_z           fx          fy          fz
             1    0       0.000000      0.000000      0.000000     0.000007   -0.000002    0.415254
             2    0       0.000000      0.000000      4.375070     0.000006   -0.000001   -0.415267
             3    0       1.339590      0.773410      2.187530    -0.000005   -0.000000    0.000170
             4    1       0.000000      0.000000      8.750140     0.000007   -0.000001    0.000270
             5    1       1.339590      0.773410      6.562600    -0.000006    0.000002   -1.384260
             6    1       1.339590      0.773410     10.937700    -0.000008    0.000002    1.383832
 Energy
        -26.542278730000
 PlusStress:  xx          yy          zz          yz          xz          xy
         3.02499     3.02490     3.36402    -0.00000    -0.00000    -0.00001
END_CFG

BEGIN_CFG
 Size
    4
 Supercell
         0.000000      0.000000      2.939730
        -4.409590      1.469860      1.469860
        -2.939730     -2.939730      0.000000
 AtomData:  id type       cartes_x      cartes_y      cartes_z           fx          fy          fz
             1    0       0.000000      0.000000      0.000000    -0.421884    0.425289    0.000788
             2    0      -4.409590     -1.469860      1.469860    -0.000026   -0.000076    0.000019
             3    0      -1.469860     -1.469860      1.469860     0.421886   -0.425290   -0.000761
             4    1      -2.939730     -0.000000      2.939730     0.000023    0.000076   -0.000046
 Energy
        -16.583733850000
 PlusStress:  xx          yy          zz          yz          xz          xy
         0.62812     0.62994     0.64831     0.00351    -0.00897     0.01452
END_CFG

BEGIN_CFG
 Size
    6
 Supercell
         2.598310      0.000000      0.000000
        -1.299160      2.250200      0.000000
         0.000000      0.000000     12.729100
 AtomData:  id type       cartes_x      cartes_y      cartes_z           fx          fy          fz
             1    0       0.000000      0.000000      0.000000     0.000009    0.000002    0.792701
             2    0       0.000000      0.000000      4.243030     0.000008    0.000002   -0.000002
             3    0       0.000000      0.000000      8.486050     0.000009    0.000004   -0.792432
             4    0       1.299160      0.750070      2.121510    -0.000007   -0.000003   -0.036046
             5    0       1.299160      0.750070      6.364540    -0.000007   -0.000002    0.036755
             6    1       1.299160      0.750070     10.607600    -0.000014   -0.000003   -0.000976
 Energy
        -23.794177290000
 PlusStress:  xx          yy          zz          yz          xz          xy
         2.08905     2.08904     1.42227    -0.00000     0.00000    -0.00005
END_CFG

BEGIN_CFG
 Size
    6
 Supercell
         2.717830      0.000000      0.000000
        -1.358920      2.353710      0.000000
         0.000000      1.569140     13.314600
 AtomData:  id type       cartes_x      cartes_y      cartes_z           fx          fy          fz
             1    0       1.358920      0.784570      2.219100     0.000000    0.000127   -0.003589
             2    0      -0.000000      3.138280     11.095500    -0.000006   -0.000128    0.003062
             3    1       0.000000      0.000000      0.000000     0.000006    0.000002   -0.000211
             4    1       1.358920      0.784570      6.657300     0.000000   -0.000003    0.000115
             5    1      -0.000000      1.569140      8.876400     0.000011   -0.000784    1.055053
             6    1       1.358920      2.353710      4.438200    -0.000011    0.000787   -1.054431
 Energy
        -28.481789890000
 PlusStress:  xx          yy          zz          yz          xz          xy
         1.44959     1.43883     0.66149    -0.01162     0.00002     0.00006
END_CFG

BEGIN_CFG
 Size
    2
 Supercell
         2.679170      0.000000      0.000000
        -1.339590      2.320230      0.000000
         0.000000      0.000000      4.375070
 AtomData:  id type       cartes_x      cartes_y      cartes_z           fx          fy          fz
             1    0       0.000000      0.000000      0.000000     0.000008   -0.000003   -0.000035
             2    1       1.339590      0.773410      2.187530    -0.000008    0.000003    0.000035
 Energy
         -9.094093580000
 PlusStress:  xx          yy          zz          yz          xz          xy
         0.62681     0.62678    -0.25535    -0.00001     0.00000     0.00000
END_CFG

BEGIN_CFG
 Size
    2
 Supercell
         1.503630     -1.503630      1.503630
         1.503630      1.503630     -1.503630
         0.000000      3.007270      3.007270
 AtomData:  id type       cartes_x      cartes_y      cartes_z           fx          fy          fz
             1    0       0.000000      0.000000      0.000000    -0.000000   -0.000037   -0.000037
             2    1       1.503630      1.503630      1.503630     0.000000    0.000037    0.000037
 Energy
         -8.989835620000
 PlusStress:  xx          yy          zz          yz          xz          xy
         0.54896     0.51585     0.51585    -0.75273    -0.00000     0.00000
END_CFG

BEGIN_CFG
 Size
    3
 Supercell
         2.792020      0.000000      0.000000
        -1.396010      2.417960      0.000000
         1.396010      0.805986      6.839010
 AtomData:  id type       cartes_x      cartes_y      cartes_z           fx          fy          fz
             1    1       0.000000      0.000000      0.000000     0.000002    0.000001   -0.000362
             2    1       1.396010      0.805990      2.279670     0.000559    0.000321   -0.066508
             3    1       1.396010      2.417960      4.559340    -0.000561   -0.000322    0.066871
 Energy
        -15.587840690000
 PlusStress:  xx          yy          zz          yz          xz          xy
        -0.46610    -0.46476     0.07523    -0.00082    -0.00157    -0.00119
END_CFG

BEGIN_CFG
 Size
    6
 Supercell
         2.717830      0.000000      0.000000
        -1.358920      2.353710      0.000000
         0.000000      1.569140     13.314600
 AtomData:  id type       cartes_x      cartes_y      cartes_z           fx          fy          fz
             1    0       1.358920      0.784570      2.219100    -0.000003   -0.000679    0.279512
             2    0       1.358920      2.353710      4.438200    -0.000003    0.000676   -0.279669
             3    1       0.000000      0.000000      0.000000     0.000009    0.000066    1.128593
             4    1       1.358920      0.784570      6.657300    -0.000003   -0.000070   -1.127933
             5    1      -0.000000      1.569140      8.876400     0.000013   -0.000653   -0.021789
             6    1      -0.000000      3.138280     11.095500    -0.000013    0.000660    0.021287
 Energy
        -28.163599620000
 PlusStress:  xx          yy          zz          yz          xz          xy
         1.46486     1.45847     1.70334    -0.00704     0.00003     0.00006
END_CFG

BEGIN_CFG
 Size
    6
 Supercell
         1.837280      1.837280      0.000000
        -5.511850      5.511850      0.000000
         0.000000      0.000000      3.674570
 AtomData:  id type       cartes_x      cartes_y      cartes_z           fx          fy          fz
             1    0       0.000000      0.000000      0.000000    -0.404197    0.404197   -0.000043
             2    0       0.000000      1.837280      1.837280    -0.236032    0.236030    0.000029
             3    0      -1.837280      1.837280      0.000000    -0.000032    0.000046   -0.000029
             4    0      -1.837280      3.674570      1.837280     0.235957   -0.235981    0.000028
             5    0      -3.674570      3.674570      0.000000     0.404275   -0.404259   -0.000042
             6    1      -3.674570      5.511850      1.837280     0.000031   -0.000033    0.000057
 Energy
        -24.072017050000
 PlusStress:  xx          yy          zz          yz          xz          xy