BEGIN_CFG
 Size
    16
 Supercell
         5.660000      0.000000      0.000000
         0.000000      5.660000      0.000000
         0.000000      0.000000      5.660000
 AtomData:  id type       cartes_x      cartes_y      cartes_z           fx          fy          fz      magmom_x     magmom_y     magmom_z
             1    0       1.122520      2.623380      1.590020    -0.764342   -0.210782    0.043100      1.542922     0.000000     0.000000
             2    0       4.894100      3.274880      3.192040    -0.444691   -1.163503   -0.380708      1.604532     0.000000     0.000000
             3    0       0.703480      4.743460      3.584980     0.444580    0.048129    1.130553      0.832606     0.000000     0.000000
             4    0       4.713930      1.456770      1.104570    -0.605788    0.105413    1.584895     -0.143925     0.000000     0.000000
             5    0       0.151180      1.123370      3.018450     0.295431    0.133205    0.767910     -0.727438     0.000000     0.000000
             6    0       2.787690      1.878400      0.072870    -0.599212    0.941385    0.421003     -0.800548     0.000000     0.000000
             7    0       4.983930      3.190490      5.600710     0.299472    1.168370   -1.203540      1.705366     0.000000     0.000000
             8    0       0.026740      4.956030      1.532380    -0.636039   -0.909036   -1.465923      0.696739     0.000000     0.000000
             9    0       0.784080      0.744180      5.260300    -0.444399    0.139958    0.270873     -2.170941     0.000000     0.000000
            10    0       2.170920      0.322030      1.725260     0.328209   -0.251843    0.768401     -2.130552     0.000000     0.000000
            11    0       2.047680      2.553710      3.773700    -1.129654   -1.515972   -0.992793     -1.678342     0.000000     0.000000
            12    0       1.567110      4.093210      5.640250     0.373661    0.703254   -0.234245      1.270999     0.000000     0.000000
            13    0       3.645470      0.835960      3.787030     0.807040    1.185775   -1.118381     -1.560810     0.000000     0.000000
            14    0       3.169410      3.587080      1.581150     1.532486    0.340991    0.181522     -1.099394     0.000000     0.000000
            15    0       3.872400      5.425580      0.117540    -0.497004   -1.859197   -0.284532     -1.292096     0.000000     0.000000
            16    0       2.979340      4.471470      3.698770     1.040251    1.143852    0.511864     -1.203813     0.000000     0.000000
 Energy
       -123.317744840000
 PlusStress:  xx          yy          zz          yz          xz          xy
         4.15861    11.80612    11.24047    -4.36961     6.76086     2.83635
 Feature   COLLINEAR	YES
 Feature   EFS_by	VASP
END_CFG
