BEGIN_CFG
 Size
    128
 Supercell
        14.080000      0.000000      0.000000
         0.000000     14.080000      0.000000
         0.000000      0.000000     14.080000
 AtomData:  id type       cartes_x      cartes_y      cartes_z           fx          fy          fz
             1    0      13.701090      0.073020     13.874400     0.125702    0.089648    0.225808
             2    0       1.485170      1.938030      1.592720     0.275245   -0.220685    0.164564
             3    0       0.300710     14.037510      3.676180    -0.272007    0.295637   -0.000749
             4    0       2.262760      1.729600      5.506060    -0.183364   -0.053948   -0.187107
             5    0      14.065940      0.302750      7.264810     0.373840   -0.108624   -0.282772
             6    0       2.213140      2.077630      8.850480     0.015440    0.002865   -0.321651
             7    0       0.410730      0.451830     10.181330    -0.122485   -0.219772    0.248385
             8    0       2.179000      1.790810     12.296740    -0.233669    0.017936    0.193133
             9    0       0.034020      3.287030     13.804230    -0.295056    0.123975   -0.063719
            10    0       1.668400      5.437350      1.323140    -0.261520   -0.600789    0.083412
            11    0      13.781180      3.313370      3.532260     0.179326    0.016615    0.061973
            12    0       1.762510      4.924430      5.520200     0.053721    0.172332   -0.262053
            13    0      14.054610      3.498770      7.275160     0.099375   -0.122513   -0.159901
            14    0       2.117950      5.148150      8.780920    -0.222719    0.038137    0.227200
            15    0       0.321070      3.540210     10.466490    -0.165188   -0.276402   -0.107718
            16    0       1.692790      5.059830     12.075790     0.165169    0.189292    0.367387
            17    0      13.764610      7.202000      0.229610    -0.133849   -0.082003   -0.405817
            18    0       1.165460      8.530870      2.055130     0.200005   -0.078815   -0.236936
            19    0      14.010200      6.335800      3.534900    -0.114444    0.161555    0.008620
            20    0       1.574840      8.593630      4.867450     0.200220   -0.185517    0.344971
            21    0       0.246400      6.759050      7.168790    -0.185953    0.079165    0.030026
            22    0       2.073100      8.738120      8.510970    -0.267902   -0.018836    0.227422
            23    0       0.002520      6.989540     10.508260     0.080929   -0.034176   -0.026495
            24    0       1.382930      8.951460     12.591440    -0.053474   -0.040840   -0.345432
            25    0       0.038260     10.664360      0.316380    -0.223342    0.089590   -0.200511
            26    0       1.615000     12.625780      1.687680     0.069257   -0.088135   -0.229909
            27    0       0.117600     10.776020      3.291690     0.010814   -0.163637    0.428461
            28    0       1.830050     12.252300      5.225820     0.098640    0.079957    0.014423
            29    0       0.267400     10.451380      6.873220    -0.035319    0.207321    0.161109
            30    0       1.964900     12.466780      8.514350    -0.040756    0.101434    0.070198
            31    0       0.544390     10.844710     10.508150    -0.327603   -0.173959   -0.247443
            32    0       1.630370     12.530340     12.221690     0.183885    0.134016    0.273087
            33    0       3.827890     13.747390     13.972750    -0.323186    0.394678    0.147843
            34    0       5.380890      1.998020      2.112790     0.108320   -0.267958   -0.179760
            35    0       3.641060     13.867910      3.098800    -0.136619    0.414269    0.423461
            36    0       5.654650      2.105940      5.303170    -0.199150   -0.101362    0.145210
            37    0       4.008530     13.999770      7.043370    -0.102977    0.065264    0.027752
            38    0       5.468040      1.930270      9.096320    -0.017378   -0.026101   -0.185208
            39    0       3.453110      0.226570     10.519700     0.278256   -0.281768   -0.086205
            40    0       5.516860      1.703700     12.446200    -0.078590    0.095750   -0.066220
            41    0       3.719120      3.391710      0.261470    -0.132100    0.111634   -0.261198
            42    0       5.493110      5.268240      1.399400    -0.123968    0.165745    0.328706
            43    0       3.650180      3.725520      3.433900    -0.239572   -0.148769    0.025793
            44    0       5.560980      5.225940      4.966960    -0.108247   -0.039590    0.102229
            45    0       3.731940      3.724720      7.017020     0.370005   -0.116211    0.047246
            46    0       5.217290      5.242030      9.253110     0.048850    0.278121   -0.244574
            47    0       3.897780      3.573670     10.683540    -0.279156   -0.063476    0.303631
            48    0       5.210230      5.626060     12.464680    -0.070879   -0.029154   -0.001669
            49    0       2.939870      7.178770     13.947270     0.434954    0.085513   -0.006458
            50    0       5.227760      8.759770      1.631110    -0.137899   -0.183445    0.017461
            51    0       3.456710      6.538370      3.004760    -0.018566    0.310988    0.164046
            52    0       4.772010      8.193570      5.018800     0.157470    0.327948   -0.003192
            53    0       3.813250      6.789260      7.328970     0.010684    0.031684   -0.253149
            54    0       5.512880      8.534170      9.211510    -0.383046   -0.005624   -0.297208
            55    0       3.132960      7.229810     10.663140     0.141417   -0.024912    0.064535
            56    0       5.097260      9.027250     12.102050     0.050446   -0.194743    0.368068
            57    0       3.255530     10.275170      0.110430     0.014465    0.326654   -0.079511
            58    0       5.118910     12.205990      1.785320     0.374388   -0.334628   -0.105575
            59    0       3.096910     10.295130      3.080700     0.223652    0.225905    0.185176
            60    0       5.106560     12.065720      5.070990    -0.001941    0.035330    0.093107
            61    0       3.338200     10.476170      6.986860     0.421585   -0.032198   -0.123808
            62    0       5.354810     12.266350      9.140440    -0.035417   -0.019338   -0.235420
            63    0       3.459760     10.738640     10.610480    -0.094814   -0.131608   -0.093079
            64    0       5.261820     12.530700     12.093890     0.224054   -0.261458    0.064997
            65    0       6.987470     14.079300      0.166320     0.017816   -0.129654    0.039696
            66    0       8.891750      1.565820      1.654150    -0.087260    0.239453    0.153410
            67    0       7.082840      0.105710      3.742910    -0.113829   -0.185244   -0.140918
            68    0       8.703590      1.881740      5.502840    -0.033700    0.029030    0.079851
            69    0       6.933380      0.014240      7.312590     0.036291    0.084801   -0.084801
            70    0       8.745820      1.782070      8.901410    -0.242864    0.038797   -0.028797
            71    0       7.213370      0.087820     10.498760    -0.162290   -0.208027    0.057563
            72    0       8.687140      1.604800     12.274570     0.096503   -0.025220    0.052824
            73    0       7.107110      3.560880      0.173710     0.113469   -0.163775   -0.249106
            74    0       8.640200      5.460630      1.761300     0.269070    0.075888   -0.252052
            75    0       7.425940      3.484590      3.501240    -0.140128    0.029273   -0.184897
            76    0       8.647440      5.277470      5.251440     0.208548    0.106716    0.205608
            77    0       7.095370      4.001350      7.408070    -0.165658   -0.273222   -0.063873
            78    0       8.771150      5.597880      8.985160     0.130265   -0.270019   -0.272863
            79    0       7.070390      3.863140     10.816740     0.164239   -0.297458    0.072241
            80    0       8.778650      5.491640     12.486380    -0.058069    0.053320   -0.097021
            81    0       6.999110      7.314330      0.046940     0.173627    0.087586   -0.199152
            82    0       9.062660      8.820470      1.880480    -0.184033    0.072073   -0.121351
            83    0       7.166580      6.994100      3.427350    -0.128926    0.196484   -0.016459
            84    0       8.658130      8.741910      5.413350     0.066053    0.060039   -0.064557
            85    0       7.101640      6.979890      6.891890    -0.227277    0.081370    0.266092
            86    0       8.882160      8.781410      8.797560    -0.035214    0.098488   -0.064217
            87    0       7.147260      6.876000     10.510180    -0.082679    0.268434    0.314539
            88    0       8.763750      8.894940     12.003870     0.232920   -0.150993    0.163253
            89    0       7.244750     10.525050     14.014980    -0.204805    0.009014    0.140840
            90    0       8.894520     12.354820      1.926290    -0.096396   -0.223208    0.105571
            91    0       6.688200     10.298990      3.452200     0.264106   -0.007557    0.087181
            92    0       8.245210     12.212800      5.696070     0.294922   -0.096253   -0.231187
            93    0       6.808310     10.305460      7.400390    -0.179768   -0.021749   -0.290317
            94    0       8.617630     12.139300      8.784060    -0.040255   -0.028672   -0.052093
            95    0       7.028540     10.309890     10.599690    -0.006560    0.305476   -0.103107
            96    0       8.684340     12.054210     12.127550     0.096445    0.298276    0.068148
            97    0      10.380310     13.893030      0.006530     0.191164   -0.042588   -0.241227
            98    0      11.969890      1.776980      1.809540     0.071217   -0.080614   -0.006274
            99    0      10.218970      0.089500      3.904140     0.113408   -0.116671   -0.042930
           100    0      12.178210      1.578570      5.616250    -0.048323    0.258970   -0.199317
           101    0      10.418560      0.050170      7.309280    -0.140417   -0.147626   -0.242904
           102    0      12.303480      1.676590      8.863660    -0.232032    0.170090   -0.013989
           103    0      10.359890     13.882280     10.189880    -0.011820    0.184582    0.226836
           104    0      12.145020      1.834200     11.730820     0.073469   -0.057204    0.317966
           105    0      10.217230      3.542680     13.722400     0.242251   -0.143995    0.240049
           106    0      12.136880      5.099630      1.441230     0.021700   -0.006398    0.046608
           107    0      10.363540      4.010610      3.436940     0.057500   -0.524943   -0.056980
           108    0      12.081480      5.023110      5.282020     0.186520   -0.035042    0.375421
           109    0      10.156540      3.479190      7.292810     0.332686    0.193646   -0.131087
           110    0      12.271900      4.808100      9.046470    -0.031096    0.268043   -0.179649
           111    0      10.271200      3.402350     10.484970    -0.155513    0.217770    0.044000
           112    0      12.289800      5.049630     11.963710    -0.042569    0.156953    0.273610
           113    0      10.592600      7.238080     13.903570     0.048520   -0.004701    0.019858
           114    0      12.093800      8.890250      2.039860     0.243436   -0.085827   -0.075356
           115    0      10.658210      6.999500      3.760030    -0.058930    0.075555   -0.076998
           116    0      12.756360      8.802750      5.434790    -0.206456   -0.125014   -0.271518
           117    0      10.804020      7.114310      7.161220     0.011237   -0.064805   -0.027596
           118    0      12.740210      9.105630      9.055490    -0.115038   -0.095187   -0.276845
           119    0      10.484930      7.045090     10.371140     0.378649    0.100205    0.268872
           120    0      12.378920      9.104980     12.013160     0.038107   -0.062758    0.075319
           121    0      10.835990     10.626370     13.875390    -0.109244    0.102033    0.118333
           122    0      12.196980     12.137080      2.394790    -0.210799    0.430234   -0.486111
           123    0      10.563650     10.351080      3.858560    -0.153595    0.190082    0.173206
           124    0      12.427850     12.447060      5.271880     0.007639   -0.020657    0.211113
           125    0      10.731040     10.517820      6.975530    -0.095333   -0.005810    0.072197
           126    0      12.389090     12.467280      8.477180     0.229530   -0.129543    0.176487
           127    0      10.648260     10.883130     10.265460     0.010748   -0.230843    0.106896
           128    0      12.464860     12.865540     11.764490     0.008323   -0.363300   -0.043378
 Energy
       -237.065068990000
 PlusStress:  xx          yy          zz          yz          xz          xy
        -9.39951   -10.26756    -9.10314     0.56531     0.98066     0.14119
END_CFG

