BEGIN_CFG
 Size
    128
 Supercell
        14.080000      0.000000      0.000000
         0.000000     14.080000      0.000000
         0.000000      0.000000     14.080000
 AtomData:  id type       cartes_x      cartes_y      cartes_z           fx          fy          fz
             1    0       0.000000      0.000000      0.000000    -0.000001   -0.000000   -0.000001
             2    0       1.760000      1.760000      1.760000    -0.000001    0.000002    0.000001
             3    0       0.000000      0.000000      3.520000    -0.000001    0.000000    0.000002
             4    0       1.760000      1.760000      5.280000    -0.000001    0.000001    0.000002
             5    0       0.000000      0.000000      7.040000    -0.000001   -0.000000    0.000001
             6    0       1.760000      1.760000      8.800000    -0.000001    0.000001   -0.000000
             7    0       0.000000      0.000000     10.560000    -0.000000   -0.000000   -0.000002
             8    0       1.760000      1.760000     12.320000    -0.000001    0.000001   -0.000003
             9    0       0.000000      3.520000      0.000000    -0.000001    0.000002   -0.000000
            10    0       1.760000      5.280000      1.760000    -0.000001    0.000001    0.000001
            11    0       0.000000      3.520000      3.520000    -0.000001    0.000002    0.000001
            12    0       1.760000      5.280000      5.280000    -0.000000    0.000001    0.000002
            13    0       0.000000      3.520000      7.040000    -0.000000    0.000002    0.000001
            14    0       1.760000      5.280000      8.800000    -0.000000    0.000001   -0.000001
            15    0       0.000000      3.520000     10.560000    -0.000000    0.000001   -0.000002
            16    0       1.760000      5.280000     12.320000    -0.000001    0.000001   -0.000002
            17    0       0.000000      7.040000      0.000000    -0.000001   -0.000000   -0.000001
            18    0       1.760000      8.800000      1.760000    -0.000000   -0.000001    0.000001
            19    0       0.000000      7.040000      3.520000    -0.000001   -0.000000    0.000002
            20    0       1.760000      8.800000      5.280000    -0.000000   -0.000001    0.000002
            21    0       0.000000      7.040000      7.040000    -0.000000    0.000000    0.000001
            22    0       1.760000      8.800000      8.800000     0.000000   -0.000001   -0.000001
            23    0       0.000000      7.040000     10.560000    -0.000001   -0.000000   -0.000002
            24    0       1.760000      8.800000     12.320000    -0.000001   -0.000000   -0.000002
            25    0       0.000000     10.560000      0.000000    -0.000001   -0.000001   -0.000001
            26    0       1.760000     12.320000      1.760000    -0.000001   -0.000002    0.000001
            27    0       0.000000     10.560000      3.520000    -0.000001   -0.000002    0.000002
            28    0       1.760000     12.320000      5.280000    -0.000001   -0.000002    0.000002
            29    0       0.000000     10.560000      7.040000    -0.000001   -0.000002    0.000000
            30    0       1.760000     12.320000      8.800000    -0.000001   -0.000001   -0.000000
            31    0       0.000000     10.560000     10.560000    -0.000000   -0.000001   -0.000001
            32    0       1.760000     12.320000     12.320000    -0.000001   -0.000002   -0.000003
            33    0       3.520000      0.000000      0.000000    -0.000000   -0.000000   -0.000001
            34    0       5.280000      1.760000      1.760000     0.000000    0.000002    0.000001
            35    0       3.520000      0.000000      3.520000    -0.000000    0.000000    0.000002
            36    0       5.280000      1.760000      5.280000     0.000000    0.000002    0.000002
            37    0       3.520000      0.000000      7.040000    -0.000000   -0.000000    0.000001
            38    0       5.280000      1.760000      8.800000    -0.000000    0.000001   -0.000001
            39    0       3.520000      0.000000     10.560000    -0.000001   -0.000000   -0.000002
            40    0       5.280000      1.760000     12.320000     0.000000    0.000001   -0.000002
            41    0       3.520000      3.520000      0.000000    -0.000000    0.000002   -0.000000
            42    0       5.280000      5.280000      1.760000     0.000001    0.000002    0.000002
            43    0       3.520000      3.520000      3.520000    -0.000000    0.000002    0.000002
            44    0       5.280000      5.280000      5.280000     0.000000    0.000001    0.000002
            45    0       3.520000      3.520000      7.040000    -0.000000    0.000002    0.000001
            46    0       5.280000      5.280000      8.800000     0.000000    0.000001   -0.000001
            47    0       3.520000      3.520000     10.560000    -0.000001    0.000001   -0.000002
            48    0       5.280000      5.280000     12.320000     0.000001    0.000001   -0.000002
            49    0       3.520000      7.040000      0.000000     0.000000    0.000000   -0.000001
            50    0       5.280000      8.800000      1.760000     0.000001   -0.000001    0.000001
            51    0       3.520000      7.040000      3.520000     0.000000    0.000000    0.000002
            52    0       5.280000      8.800000      5.280000     0.000000   -0.000001    0.000002
            53    0       3.520000      7.040000      7.040000    -0.000000    0.000000    0.000001
            54    0       5.280000      8.800000      8.800000     0.000000   -0.000001   -0.000001
            55    0       3.520000      7.040000     10.560000     0.000000    0.000001   -0.000003
            56    0       5.280000      8.800000     12.320000     0.000000   -0.000001   -0.000002
            57    0       3.520000     10.560000      0.000000    -0.000000   -0.000002   -0.000001
            58    0       5.280000     12.320000      1.760000     0.000000   -0.000002    0.000001
            59    0       3.520000     10.560000      3.520000     0.000000   -0.000002    0.000002
            60    0       5.280000     12.320000      5.280000     0.000000   -0.000002    0.000002
            61    0       3.520000     10.560000      7.040000    -0.000000   -0.000002    0.000001
            62    0       5.280000     12.320000      8.800000    -0.000000   -0.000002   -0.000001
            63    0       3.520000     10.560000     10.560000    -0.000001   -0.000002   -0.000002
            64    0       5.280000     12.320000     12.320000    -0.000000   -0.000002   -0.000002
            65    0       7.040000      0.000000      0.000000     0.000001   -0.000000   -0.000001
            66    0       8.800000      1.760000      1.760000     0.000001    0.000001    0.000001
            67    0       7.040000      0.000000      3.520000     0.000000   -0.000001    0.000002
            68    0       8.800000      1.760000      5.280000     0.000000    0.000001    0.000002
            69    0       7.040000      0.000000      7.040000     0.000000   -0.000000    0.000000
            70    0       8.800000      1.760000      8.800000     0.000000    0.000002   -0.000001
            71    0       7.040000      0.000000     10.560000     0.000000    0.000000   -0.000002
            72    0       8.800000      1.760000     12.320000     0.000001    0.000002   -0.000002
            73    0       7.040000      3.520000      0.000000     0.000001    0.000002   -0.000001
            74    0       8.800000      5.280000      1.760000     0.000001    0.000002    0.000001
            75    0       7.040000      3.520000      3.520000     0.000000    0.000002    0.000002
            76    0       8.800000      5.280000      5.280000     0.000000    0.000001    0.000002
            77    0       7.040000      3.520000      7.040000     0.000000    0.000002    0.000001
            78    0       8.800000      5.280000      8.800000     0.000000    0.000002   -0.000000
            79    0       7.040000      3.520000     10.560000     0.000001    0.000002   -0.000002
            80    0       8.800000      5.280000     12.320000     0.000001    0.000001   -0.000002
            81    0       7.040000      7.040000      0.000000     0.000001   -0.000000   -0.000000
            82    0       8.800000      8.800000      1.760000     0.000001   -0.000001    0.000001
            83    0       7.040000      7.040000      3.520000     0.000001   -0.000000    0.000002
            84    0       8.800000      8.800000      5.280000     0.000001   -0.000001    0.000001
            85    0       7.040000      7.040000      7.040000     0.000001    0.000000    0.000001
            86    0       8.800000      8.800000      8.800000     0.000000   -0.000002   -0.000000
            87    0       7.040000      7.040000     10.560000     0.000001    0.000000   -0.000002
            88    0       8.800000      8.800000     12.320000     0.000001   -0.000001   -0.000002
            89    0       7.040000     10.560000      0.000000     0.000001   -0.000002   -0.000000
            90    0       8.800000     12.320000      1.760000     0.000001   -0.000002    0.000001
            91    0       7.040000     10.560000      3.520000     0.000001   -0.000002    0.000002
            92    0       8.800000     12.320000      5.280000     0.000001   -0.000002    0.000002
            93    0       7.040000     10.560000      7.040000     0.000000   -0.000002    0.000000
            94    0       8.800000     12.320000      8.800000     0.000001   -0.000002   -0.000001
            95    0       7.040000     10.560000     10.560000     0.000001   -0.000002   -0.000002
            96    0       8.800000     12.320000     12.320000     0.000001   -0.000002   -0.000002
            97    0      10.560000      0.000000      0.000000     0.000001   -0.000000   -0.000001
            98    0      12.320000      1.760000      1.760000    -0.000000    0.000002    0.000001
            99    0      10.560000      0.000000      3.520000     0.000001   -0.000001    0.000002
           100    0      12.320000      1.760000      5.280000     0.000000    0.000001    0.000001
           101    0      10.560000      0.000000      7.040000     0.000001   -0.000001    0.000000
           102    0      12.320000      1.760000      8.800000     0.000000    0.000001   -0.000001
           103    0      10.560000      0.000000     10.560000     0.000001   -0.000000   -0.000001
           104    0      12.320000      1.760000     12.320000    -0.000000    0.000001   -0.000001
           105    0      10.560000      3.520000      0.000000     0.000001    0.000002   -0.000001
           106    0      12.320000      5.280000      1.760000    -0.000000    0.000001    0.000001
           107    0      10.560000      3.520000      3.520000     0.000001    0.000002    0.000001
           108    0      12.320000      5.280000      5.280000    -0.000000    0.000001    0.000001
           109    0      10.560000      3.520000      7.040000     0.000000    0.000002    0.000001
           110    0      12.320000      5.280000      8.800000    -0.000000    0.000001   -0.000001
           111    0      10.560000      3.520000     10.560000     0.000000    0.000002   -0.000001
           112    0      12.320000      5.280000     12.320000    -0.000001    0.000001   -0.000001
           113    0      10.560000      7.040000      0.000000    -0.000000   -0.000001   -0.000001
           114    0      12.320000      8.800000      1.760000    -0.000001   -0.000001    0.000001
           115    0      10.560000      7.040000      3.520000     0.000000    0.000000    0.000002
           116    0      12.320000      8.800000      5.280000    -0.000000   -0.000001    0.000002
           117    0      10.560000      7.040000      7.040000    -0.000000    0.000000    0.000001
           118    0      12.320000      8.800000      8.800000    -0.000001   -0.000001   -0.000001
           119    0      10.560000      7.040000     10.560000    -0.000000   -0.000000   -0.000002
           120    0      12.320000      8.800000     12.320000    -0.000001   -0.000001   -0.000002
           121    0      10.560000     10.560000      0.000000     0.000000   -0.000002   -0.000001
           122    0      12.320000     12.320000      1.760000    -0.000001   -0.000001    0.000001
           123    0      10.560000     10.560000      3.520000     0.000000   -0.000002    0.000002
           124    0      12.320000     12.320000      5.280000    -0.000000   -0.000001    0.000002
           125    0      10.560000     10.560000      7.040000     0.000000   -0.000002    0.000000
           126    0      12.320000     12.320000      8.800000     0.000000   -0.000002   -0.000001
           127    0      10.560000     10.560000     10.560000     0.000000   -0.000002   -0.000001
           128    0      12.320000     12.320000     12.320000    -0.000000   -0.000001   -0.000002
 Energy
       -242.474345820000
 PlusStress:  xx          yy          zz          yz          xz          xy
       -15.96725   -15.96724   -15.96724     0.00000    -0.00000    -0.00000
END_CFG

BEGIN_CFG
 Size
    128
 Supercell
        14.080000      0.000000      0.000000
         0.000000     14.080000      0.000000
         0.000000      0.000000     14.080000
 AtomData:  id type       cartes_x      cartes_y      cartes_z           fx          fy          fz
             1    0       0.002640      0.010790     14.069320    -0.006226   -0.005203    0.007987
             2    0       1.778300      1.750300      1.758150    -0.026765    0.018597    0.001550
             3    0      14.065340      0.019650      3.527570     0.021057   -0.017343   -0.010840
             4    0       1.759410      1.770720      5.285170     0.005655   -0.014146    0.008860
             5    0       0.007410     14.071390      7.033460    -0.008703    0.022757    0.005223
             6    0       1.775050      1.773820      8.790800    -0.000122   -0.019739    0.011742
             7    0       0.007610      0.006620     10.559470    -0.005669    0.002443   -0.005612
             8    0       1.743830      1.748890     12.325210     0.026710    0.015867   -0.009207
             9    0      14.068070      3.515970     14.075550     0.007810   -0.002346    0.002142
            10    0       1.750590      5.245270      1.760010     0.002139    0.037783   -0.004906
            11    0      14.078380      3.512400      3.525690    -0.002134    0.009348   -0.008432
            12    0       1.777160      5.289190      5.276260    -0.029365   -0.011211    0.008299
            13    0       0.010300      3.508170      7.027900    -0.006212    0.017727    0.012599
            14    0       1.771210      5.274430      8.797220    -0.002134    0.000939   -0.007221
            15    0       0.014620      3.511310     10.554390    -0.014642    0.016784    0.011338
            16    0       1.750250      5.305210     12.333500     0.015642   -0.030536   -0.021173
            17    0       0.003150      7.030580     14.046190    -0.002982    0.020174    0.047077
            18    0       1.760020      8.777880      1.773860    -0.016363    0.028420   -0.025508
            19    0      14.061280      7.029260      3.521780     0.027673    0.001412   -0.000842
            20    0       1.778850      8.778030      5.292290    -0.023369    0.019729   -0.019806
            21    0      14.063360      7.032690      7.041680     0.030796    0.005703    0.007782
            22    0       1.752360      8.811780      8.797380     0.003827   -0.028611   -0.004492
            23    0       0.001860      7.025010     10.556580    -0.002826    0.018655   -0.006228
            24    0       1.750410      8.814340     12.305580     0.013011   -0.004349    0.023821
            25    0      14.054940     10.576780     14.068130     0.033831   -0.019368    0.022598
            26    0       1.767380     12.330970      1.739350    -0.010668    0.003607    0.019613
            27    0       0.008490     10.564790      3.524090    -0.002460   -0.002617   -0.012834
            28    0       1.766250     12.325070      5.275570     0.002991   -0.009958    0.005016
            29    0       0.005770     10.562330      7.044690    -0.001244   -0.008329   -0.013416
            30    0       1.755530     12.324440      8.803930     0.009677   -0.006662   -0.002960
            31    0       0.003930     10.556260     10.564610    -0.007352    0.004390   -0.009357
            32    0       1.768500     12.326430     12.314520    -0.001084    0.002478    0.003002
            33    0       3.524000      0.024910      0.003400     0.008311   -0.035274   -0.013519
            34    0       5.272660      1.762020      1.747540     0.004436    0.010603    0.020483
            35    0       3.514590      0.020560      3.540910     0.011583   -0.029425   -0.023074
            36    0       5.286380      1.739950      5.284850    -0.006422    0.033043   -0.007907
            37    0       3.525040     14.075550      7.048720    -0.003455    0.008940   -0.008179
            38    0       5.288580      1.768590      8.807280    -0.007379   -0.006322   -0.003753
            39    0       3.545210     14.076350     10.558530    -0.031691    0.009832    0.001219
            40    0       5.272250      1.741290     12.311130     0.016256    0.024279    0.022719
            41    0       3.517100      3.530540     14.066760    -0.002372   -0.015515   -0.003338
            42    0       5.286380      5.266870      1.742550    -0.014047    0.011492    0.013210
            43    0       3.499430      3.514680      3.538820     0.037369   -0.001941   -0.018031
            44    0       5.286200      5.275520      5.273110    -0.000308    0.004999    0.005518
            45    0       3.545510      3.521480      7.040330    -0.008932    0.002969   -0.004272
            46    0       5.280050      5.286670      8.824480     0.001085   -0.001343   -0.018267
            47    0       3.527810      3.523920     10.571080    -0.014816   -0.001719    0.006998
            48    0       5.267810      5.307860     12.320580     0.019474   -0.017575    0.010027
            49    0       3.514980      7.048010      0.012920    -0.007734   -0.008902   -0.015174
            50    0       5.274400      8.779930      1.744600     0.005768    0.025478    0.011878
            51    0       3.520990      7.028860      3.513560     0.010212   -0.005352   -0.003395
            52    0       5.282720      8.816040      5.269650    -0.012593   -0.030781    0.005641
            53    0       3.520910      7.030730      7.022650     0.018233    0.006990    0.027561
            54    0       5.269070      8.804120      8.796630     0.013547   -0.012794    0.007470
            55    0       3.515240      7.048150     10.563920    -0.011691    0.002856   -0.007589
            56    0       5.285280      8.791970     12.314560    -0.006592    0.012479   -0.002371
            57    0       3.537420     10.580930     14.073370    -0.028234   -0.039425    0.005180
            58    0       5.281130     12.307760      1.758340    -0.005654    0.026635    0.006808
            59    0       3.525900     10.560910      3.506350    -0.009543   -0.006565    0.008182
            60    0       5.282930     12.317750      5.285400    -0.013558   -0.000771   -0.005773
            61    0       3.531680     10.545330      7.048490    -0.018881    0.023660   -0.013200
            62    0       5.263670     12.321230      8.804340     0.029079   -0.005080   -0.002148
            63    0       3.513700     10.554150     10.546520     0.010680    0.008678    0.014652
            64    0       5.286190     12.305690     12.326340    -0.006729    0.016850   -0.010591
            65    0       7.046630     14.069390      0.006070    -0.008423    0.011028    0.004910
            66    0       8.795010      1.771950      1.764540     0.004138   -0.025173   -0.008313
            67    0       7.026760     14.077630      3.520960     0.013467    0.001630   -0.004771
            68    0       8.788660      1.762740      5.291610     0.011685    0.001408   -0.007773
            69    0       7.019980      0.013880      7.031790     0.027200   -0.027903    0.024054
            70    0       8.795380      1.770690      8.806230     0.004279   -0.014973   -0.010750
            71    0       7.034170      0.004670     10.575930     0.006427   -0.011467   -0.022890
            72    0       8.810450      1.748720     12.317590    -0.010661    0.014253    0.012161
            73    0       7.044440      3.518500      0.004210    -0.011517   -0.009201   -0.026534
            74    0       8.803480      5.286620      1.734750    -0.002830   -0.005836    0.032360
            75    0       7.040920      3.530540      3.515760     0.004640   -0.009010    0.006992
            76    0       8.813880      5.285330      5.302270    -0.008947   -0.003668   -0.026367
            77    0       7.040310      3.522830      7.041230    -0.013299    0.002816   -0.001332
            78    0       8.802520      5.266130      8.777950    -0.004312    0.024721    0.028294
            79    0       7.031330      3.510960     10.564430     0.009396    0.017926    0.012843
            80    0       8.797210      5.278220     12.334330    -0.005336    0.004381   -0.020905
            81    0       7.054210      7.048090      0.000400    -0.013225   -0.005417   -0.006149
            82    0       8.791100      8.799640      1.762400     0.007019    0.002989    0.002676
            83    0       7.030070      7.042910      3.515130     0.014353   -0.011711    0.005617
            84    0       8.786760      8.805720      5.292580     0.013499   -0.006551   -0.002466
            85    0       7.038800      7.035330      7.048520    -0.013382    0.006752   -0.010770
            86    0       8.782350      8.799960      8.811770     0.023552   -0.009865   -0.012282
            87    0       7.039790      7.046580     10.563550     0.010844   -0.013392   -0.005745
            88    0       8.813510      8.793790     12.308210    -0.019056   -0.000779    0.013501
            89    0       7.032150     10.555830     14.074370     0.016410   -0.008372    0.003244
            90    0       8.797940     12.301010      1.776220    -0.002706    0.015365   -0.011644
            91    0       7.027700     10.553720      3.529870     0.007748   -0.001529   -0.018638
            92    0       8.804010     12.312460      5.273380    -0.019163    0.007329    0.012141
            93    0       7.026240     10.553090      7.031760     0.010233    0.015739    0.020476
            94    0       8.808130     12.313620      8.800170    -0.022938    0.016007   -0.001554
            95    0       7.056690     10.564510     10.550990    -0.023350   -0.001542    0.012897
            96    0       8.789820     12.337280     12.330560     0.011548   -0.023006   -0.012372
            97    0      10.567850     14.066320     14.067940    -0.018538    0.014327    0.016206
            98    0      12.311490      1.762320      1.749240     0.007383   -0.005631    0.000794
            99    0      10.554580      0.002750      3.520960     0.001102    0.003355    0.005376
           100    0      12.322840      1.774600      5.260580    -0.014675   -0.019832    0.034365
           101    0      10.564310     14.060090      7.033530     0.001230    0.026229    0.004934
           102    0      12.313690      1.765450      8.803690     0.005926   -0.004677   -0.006324
           103    0      10.549570      0.007340     10.555660     0.015248   -0.020503    0.000015
           104    0      12.309600      1.759150     12.317970     0.001546    0.003753   -0.011185
           105    0      10.558860      3.521730      0.008670     0.001900   -0.000037   -0.013249
           106    0      12.318500      5.297170      1.758420    -0.002582   -0.014849   -0.001555
           107    0      10.566490      3.503460      3.512550    -0.009768    0.036255    0.009075
           108    0      12.323400      5.289640      5.302460    -0.012532   -0.019578   -0.029675
           109    0      10.565520      3.525070      7.049260     0.003708   -0.016310   -0.012188
           110    0      12.322500      5.282270      8.794870     0.006435   -0.020603    0.004873
           111    0      10.540330      3.540440     10.566030     0.021867   -0.012472   -0.001129
           112    0      12.326150      5.287820     12.326900    -0.005700   -0.025365   -0.011077
           113    0      10.557360      7.031390     14.063770     0.004389    0.018704    0.011960
           114    0      12.311740      8.797130      1.755730     0.008513    0.001191   -0.003697
           115    0      10.547290      7.050150      3.518500     0.005033   -0.012108    0.005322
           116    0      12.332010      8.782180      5.270420    -0.013630    0.027520    0.015417
           117    0      10.577350      7.046960      7.043970    -0.023623    0.005817    0.004361
           118    0      12.312940      8.796090      8.793330     0.014928    0.012692    0.017288
           119    0      10.584230      7.032280     10.562200    -0.032376   -0.001874   -0.009103
           120    0      12.323530      8.796730     12.318030    -0.000061   -0.001017   -0.000493
           121    0      10.540700     10.552420      0.002070     0.019013    0.011979   -0.005756
           122    0      12.311630     12.348740      1.750360     0.006699   -0.031457    0.018722
           123    0      10.560610     10.561440      3.532660     0.011661   -0.007077   -0.007469
           124    0      12.331060     12.312430      5.288970    -0.012927    0.002638   -0.009311
           125    0      10.553460     10.566720      7.066420     0.012132   -0.016142   -0.028664
           126    0      12.336870     12.316280      8.804850    -0.015720    0.001057    0.011141
           127    0      10.549960     10.547760     10.579450     0.013832    0.021253   -0.016607
           128    0      12.335720     12.314200     12.323360    -0.023626    0.012340   -0.016058
 Energy
       -242.447363150000
 PlusStress:  xx          yy          zz          yz          xz          xy
       -15.93091   -15.93342   -15.92413     0.00287     0.00013    -0.00502
END_CFG

BEGIN_CFG
 Size
    128
 Supercell
        14.080000      0.000000      0.000000
         0.000000     14.080000      0.000000
         0.000000      0.000000     14.080000
 AtomData:  id type       cartes_x      cartes_y      cartes_z           fx          fy          fz
             1    0       0.005250      0.021570     14.058670    -0.013278   -0.011224    0.016710
             2    0       1.796520      1.740660      1.756300    -0.054046    0.037119    0.003806
             3    0      14.050750      0.039240      3.535110     0.041935   -0.034669   -0.021489
             4    0       1.758840      1.781400      5.290370     0.010998   -0.029008    0.017603
             5    0       0.014800     14.062850      7.026940    -0.016719    0.044944    0.010509
             6    0       1.790090      1.787580      8.781640    -0.000042   -0.039037    0.023321
             7    0       0.015210      0.013250     10.558920    -0.011720    0.004643   -0.011474
             8    0       1.727750      1.737840     12.330390     0.053912    0.032378   -0.017990
             9    0      14.056170      3.511940     14.071110     0.015548   -0.004031    0.003653
            10    0       1.741200      5.210650      1.760010     0.004924    0.075192   -0.009824
            11    0      14.076750      3.504830      3.531360    -0.003655    0.019278   -0.017276
            12    0       1.794220      5.298340      5.272550    -0.059642   -0.022705    0.016292
            13    0       0.020580      3.496400      7.015850    -0.013190    0.035723    0.025560
            14    0       1.782410      5.268870      8.794410    -0.004152    0.001947   -0.014399
            15    0       0.029200      3.502680     10.548820    -0.028770    0.033256    0.022480
            16    0       1.740560      5.330320     12.346940     0.033616   -0.062734   -0.043465
            17    0       0.006280      7.021220     14.012520    -0.007634    0.042533    0.096066
            18    0       1.759990      8.755860      1.787650    -0.032992    0.054610   -0.047619
            19    0      14.042650      7.018530      3.523550     0.055599    0.002363   -0.001335
            20    0       1.797630      8.756120      5.304510    -0.047263    0.040295   -0.039977
            21    0      14.046820      7.025400      7.043380     0.062781    0.012153    0.015769
            22    0       1.744740      8.823480      8.794750     0.007532   -0.056604   -0.008334
            23    0       0.003710      7.010080     10.553140    -0.005347    0.037101   -0.012608
            24    0       1.740870      8.828680     12.291230     0.025722   -0.009569    0.047717
            25    0      14.029990     10.593510     14.056330     0.066808   -0.038389    0.045311
            26    0       1.774720     12.341960      1.718760    -0.020793    0.006264    0.038350
            27    0       0.016960     10.569580      3.528140    -0.004853   -0.005505   -0.025201
            28    0       1.772510     12.330120      5.271150     0.005841   -0.019547    0.009948
            29    0       0.011530     10.564640      7.049350    -0.002417   -0.016113   -0.026570
            30    0       1.751090     12.328860      8.807840     0.019333   -0.013316   -0.005666
            31    0       0.007840     10.552530     10.569200    -0.015103    0.009398   -0.019129