BEGIN_CFG
 Size
    28
 Supercell
         8.207930      0.000000     -0.000186
         0.000000      3.831060      0.000000
        -0.000191      0.000000      9.159140
 AtomData:  id type       cartes_x      cartes_y      cartes_z           fx          fy          fz
             1    0       0.075480      3.748780      0.307500    -0.692556    0.232815    0.093812
             2    0       2.102240      1.971390      4.998430    -0.346629   -0.155358   -0.430188
             3    0       4.099630      1.825370      1.970840     0.168849    0.236131   -0.010077
             4    0       6.096420      3.778300      6.417820     0.732114    0.103090    0.636073
             5    1       0.076480      3.732240      2.454290    -0.883358    0.251688   -0.222221
             6    1       4.072030      3.741860      2.522010     0.241366    0.531636    0.974438
             7    1       2.132470      1.930250      6.984850    -2.379009    0.085641   -0.545562
             8    1       6.173600      1.866870      7.163370     0.406680    0.264533   -2.041082
             9    1       0.095050      1.846130      4.782890    -0.248607    0.458446    0.559221
            10    1       4.035270      1.896870      4.818060    -0.050455   -0.186995    0.569236
            11    1       1.951040      0.096040      0.226790     0.242701   -2.598293    0.356018
            12    1       6.188160      3.792440      0.339040     0.410932    0.627681   -0.371952
            13    1       1.990320      0.069120      4.316130     0.789608   -0.493989    0.319980
            14    1       6.213870      0.024580      4.517690    -1.103515   -0.215045    0.224645
            15    1       8.185820      1.913910      8.869040     0.230943   -0.085830   -0.417069
            16    1       4.177280      1.919490      9.034520    -1.766329    0.005093   -0.453696
            17    1       2.189390      1.902930      2.042200    -0.374942    0.317284   -0.436315
            18    1       6.046930      1.937350      2.123250     0.270902   -0.703620   -0.041623
            19    1       0.027890      3.768520      6.630720    -0.560428    0.474474   -0.542215
            20    1       4.266790      0.039920      6.668650    -0.428239   -1.453582   -0.534679
            21    2       8.093780      3.749560      4.451760     1.581873    0.091468   -0.815346
            22    2       2.138280      1.822250      9.021440    -0.035875    1.925995   -0.485197
            23    2       3.960950      1.850110      6.963000     1.944899    0.694757    1.565184
            24    2       6.233130      0.022480      2.436840    -0.463702   -0.172607   -0.090018
            25    2       4.296380      3.741960      4.564920    -0.637186    0.766358   -2.252312
            26    2       6.022360      1.924210      8.977410     1.399116   -0.272562    2.374582
            27    2       0.081210      1.890530      6.880210     0.881959   -0.436610    1.684665
            28    2       1.987020      0.045520      2.424320     0.668890   -0.292596    0.331698
 Energy
       -225.592011060000
 PlusStress:  xx          yy          zz          yz          xz          xy
        -0.76503    -1.92650    -8.46957    -1.18031     0.00112    -0.01929
END_CFG

BEGIN_CFG
 Size
    28
 Supercell
         8.207930      0.000000     -0.000186
         0.000000      3.831060      0.000000
        -0.000191      0.000000      9.159140
 AtomData:  id type       cartes_x      cartes_y      cartes_z           fx          fy          fz
             1    0       8.195750      0.000000      0.351770    -0.008008    0.000000    0.035748
             2    0       2.063940      1.915530      4.931730     0.009026    0.000000    0.037987
             3    0       4.091910      1.915530      1.937860    -0.009828    0.000000   -0.038215
             4    0       6.168000      0.000000      6.517280     0.008185    0.000000   -0.035671
             5    1       0.002680      0.000000      2.399030    -0.000602    0.000000    0.000363
             6    1       4.093510      0.000000      2.553490    -0.006776    0.000000    0.015541
             7    1       2.049030      1.915530      6.980630     0.001167    0.000000   -0.006745
             8    1       6.166240      1.915530      7.134790     0.008259    0.000000    0.011055
             9    1       0.079410      1.915530      4.825650     0.005367    0.000000   -0.001936
            10    1       4.032810      1.915530      4.855360     0.005788    0.000000    0.037423
            11    1       1.972460      0.000000      0.246350    -0.004630    0.000000   -0.001062
            12    1       6.227000      0.000000      0.275700    -0.005814    0.000000    0.039960
            13    1       2.062460      0.000000      4.315910     0.004867    0.000000   -0.015019
            14    1       6.153040      0.000000      4.470230     0.001403    0.000000   -0.000647
            15    1       8.197400      1.915530      8.893360    -0.008706    0.000000   -0.009836
            16    1       4.106540      1.915530      9.048040    -0.002176    0.000000    0.001719
            17    1       2.123090      1.915530      2.013940    -0.006595    0.000000   -0.036298
            18    1       6.076410      1.915530      2.043650    -0.005140    0.000000    0.001385
            19    1       8.136690      0.000000      6.593300     0.006161    0.000000   -0.039099
            20    1       4.183390      0.000000      6.623030     0.005663    0.000000   -0.000291
            21    2       8.147680      0.000000      4.410080     0.007206    0.000000   -0.001798
            22    2       2.111740      1.915530      8.991330    -0.006684    0.000000    0.000549
            23    2       4.044030      1.915530      7.036740     0.008875    0.000000    0.006722
            24    2       6.215990      0.000000      2.458940    -0.008304    0.000000    0.005268
            25    2       4.204740      0.000000      4.488640     0.001938    0.000000    0.021731
            26    2       6.055020      1.915530      9.070130    -0.007792    0.000000    0.005591
            27    2       0.100350      1.915530      6.958470     0.006907    0.000000   -0.009495
            28    2       1.950860      0.000000      2.380760     0.000241    0.000000   -0.024931
 Energy
       -227.016046490000
 PlusStress:  xx          yy          zz          yz          xz          xy
       -10.19762   -10.21839    -9.41688     0.00000    -0.01590     0.00000
END_CFG

BEGIN_CFG
 Size
    28
 Supercell
         8.207930      0.000000     -0.000186
         0.000000      3.831060      0.000000
        -0.000191      0.000000      9.159140
 AtomData:  id type       cartes_x      cartes_y      cartes_z           fx          fy          fz
             1    0       0.003590      3.802740      0.360020    -0.180864    0.190973    0.057329
             2    0       2.016960      1.870610      4.879710     0.251039    0.020815    0.218910
             3    0       4.190550      1.916730      2.031380    -0.625497   -0.303461   -0.178142
             4    0       6.135350      0.054780      6.417520     0.299983   -0.209586    0.070878
             5    1       0.027200      0.071720      2.460910    -0.604294   -0.443746   -0.639704
             6    1       4.144290      3.746960      2.464890    -0.180957    0.743755    0.283917
             7    1       1.977710      1.823090      7.029970     2.207263    0.554116   -0.017040
             8    1       6.198260      1.817470      7.092830    -0.854330    1.061992    1.357816
             9    1       0.045750      1.825370      4.858690     0.676724    1.478898   -0.459559
            10    1       3.947930      1.961550      4.760960     0.599673   -0.719036    0.502458
            11    1       1.958170      0.088820      0.223650    -0.257989   -1.256795    0.244452
            12    1       6.320780      0.068880      0.308090    -0.307444   -1.749662    0.011773
            13    1       2.131260      3.825640      4.376530    -1.151625   -0.095413   -1.024419
            14    1       6.215370      0.061940      4.485650    -0.909537   -0.470119   -1.240085
            15    1       8.187020      1.829030      8.807540     0.119606    0.742289    3.623416
            16    1       4.185080      1.906870      9.105160    -1.721184    0.196411    0.054979
            17    1       2.213030      1.862590      2.005660    -0.485930    1.092112    0.138042
            18    1       6.115710      1.921650      2.037310     0.001812   -0.192548   -0.061205
            19    1       8.161070      0.072480      6.523860     0.113407   -1.629556    0.836658
            20    1       4.140810      0.014640      6.699610     0.127653   -0.134194   -0.489740
            21    2       0.029810      3.731440      4.475670    -0.964063    0.131714    0.106749
            22    2       2.079100      2.009690      9.025630     1.576947   -0.262513   -0.339333
            23    2       4.070830      1.978510      7.092660    -0.193790   -0.335348   -0.497583
            24    2       6.130450      3.783420      2.403840     1.398093    0.527022    1.819070
            25    2       4.161660      3.800080      4.447050     0.610165    0.359263    0.252752
            26    2       6.026120      1.863110      9.119890     0.836535    0.817461   -1.597619
            27    2       0.155630      1.980090      7.055290    -1.764867    0.105370   -4.259029
            28    2       1.897860      0.003860      2.310760     1.383468   -0.220214    1.224260
 Energy
       -225.223981420000
 PlusStress:  xx          yy          zz          yz          xz          xy
        -5.61357    -4.03314    -5.91798    -0.32695    -0.09598    -1.07649
END_CFG

BEGIN_CFG
 Size
    28
 Supercell
         8.207930      0.000000     -0.000186
         0.000000      3.831060      0.000000
        -0.000191      0.000000      9.159140
 AtomData:  id type       cartes_x      cartes_y      cartes_z           fx          fy          fz
             1    0       0.028510      0.055280      0.254440    -0.370498   -0.473104    0.220465
             2    0       2.062220      1.955270      4.948850     0.129491   -0.097203   -0.217124
             3    0       4.066770      1.945350      1.882400     0.421732   -0.025733    0.530294
             4    0       6.235290      0.097180      6.456000    -0.433873   -0.313124    0.316872
             5    1       8.139250      3.782080      2.427590     2.080116    0.292082   -0.169177
             6    1       4.178070      3.796560      2.561630    -0.982705    0.625053    0.876727
             7    1       1.978510      1.937950      7.057790     1.109379    0.150746   -0.213099
             8    1       6.154140      1.936110      7.059530     0.381295    0.212364    0.951919
             9    1       0.144110      1.891390      4.842010    -0.538030    1.166198    0.181939
            10    1       4.021370      1.938390      4.775580     0.013545   -0.019017    0.911536
            11    1       1.991010      0.090580      0.321870     0.122977   -0.653233   -0.510676
            12    1       6.175080      3.819920      0.290970     0.611539    0.584392   -0.145960
            13    1       2.054720      3.821820      4.388030     0.272873    0.230237   -0.836844
            14    1       6.189840      3.789140      4.466590    -0.915940    0.164206    0.933459
            15    1       8.199960      1.829290      8.940740    -0.059226    1.103155   -0.729315
            16    1       4.164880      2.013870      9.087960    -0.884382   -0.354195    0.032651
            17    1       2.089570      1.970390      2.103340     0.182381   -0.271692   -0.546696
            18    1       6.020070      1.985330      2.053630     0.743598   -1.106121   -0.031105
            19    1       0.024210      0.034500      6.606360    -0.657077   -0.449965   -0.113822
            20    1       4.195190      0.050100      6.685810    -0.350942    0.080371   -0.306064
            21    2       8.106760      0.095720      4.463460     2.223096   -0.977286   -0.470993
            22    2       2.173380      1.986370      9.060620    -0.787609    0.138407   -0.342432
            23    2       3.947970      2.005670      7.123840     1.330391   -0.275707   -0.705030
            24    2       6.292070      0.026960      2.531160    -2.663460    0.328970   -1.527023
            25    2       4.177180      0.056560      4.574610    -0.710963   -0.172130   -1.686498
            26    2       6.101880      1.930450      9.081490     0.222329   -0.005872   -0.209054
            27    2       0.087150      1.923970      6.924690    -0.710332    0.136806    1.222768
            28    2       1.927060      0.052100      2.316780     0.220295   -0.018605    2.582284
 Energy
       -225.726686820000
 PlusStress:  xx          yy          zz          yz          xz          xy
        -6.47490    -5.04615   -12.56065    -0.27596     0.39665     0.17503
END_CFG

BEGIN_CFG
 Size
    28
 Supercell
         8.207930      0.000000     -0.000186
         0.000000      3.831060      0.000000
        -0.000191      0.000000      9.159140
 AtomData:  id type       cartes_x      cartes_y      cartes_z           fx          fy          fz
             1    0       0.001050      3.805660      0.349520     0.003121    0.053225   -0.083640
             2    0       1.990040      2.001930      5.006450     0.658269   -0.484491   -0.193609
             3    0       4.180790      1.988050      2.008300    -0.543572   -0.461286   -0.143151
             4    0       6.137290      0.034160      6.485600     0.271360    0.177348    0.320972
             5    1       0.068320      3.796220      2.357510    -0.967164    0.175465    0.031625
             6    1       4.146250      3.772300      2.565970    -0.052726    0.680838    0.227569
             7    1       2.001030      1.856250      6.949670     1.318146    0.565224    0.545904
             8    1       6.104220      2.003110      7.145790     0.704776   -0.277938    0.926734
             9    1       0.128770      1.816950      4.745110    -0.365292    1.191853    0.284181
            10    1       4.075430      1.893150      4.853960    -0.331140    0.029885    0.148501
            11    1       2.051110      0.017880      0.319550    -0.348202   -0.490754   -0.719639
            12    1       6.130260      0.043980      0.335330     0.812838   -0.341005    0.244536
            13    1       2.140440      3.790980      4.275090    -0.649726    0.111679    0.690315
            14    1       6.128500      3.787320      4.563590     0.892493    0.055609   -1.090552
            15    1       0.033270      1.837430      8.852060    -0.715938    0.638132    0.922598
            16    1       4.135860      1.917210      8.974840    -0.718996   -0.014175    2.110011
            17    1       2.064890      1.969210      1.981460     0.535719   -1.255738    0.127864
            18    1       6.087250      1.934250      2.125790     0.355734    0.215289   -0.334802
            19    1       8.185590      0.095120      6.676880    -0.535858   -1.321459   -0.596634
            20    1       4.251750      0.037740      6.711270    -0.807104   -0.201055   -0.516439
            21    2       8.114640      3.774500      4.343260     0.397151   -0.011002    1.155805
            22    2       2.051920      1.862250      8.995540     0.774965    0.534278   -0.111350
            23    2       4.070870      1.967270      7.100860    -0.003834   -0.117790   -1.854185
            24    2       6.302010      0.054260      2.506380    -1.001554   -0.337204    0.120017
            25    2       4.211160      3.756160      4.485010    -0.067398    0.367667    0.397597
            26    2       6.047190      1.969950      0.009070     0.267926   -0.061835   -1.638171
            27    2       0.119130      2.011750      6.937270    -0.731034   -0.155098   -0.167158
            28    2       1.964200      3.765160      2.405320     0.847040    0.734338   -0.804898
 Energy
       -225.810393050000
 PlusStress:  xx          yy          zz          yz          xz          xy
        -4.83701    -7.31286    -5.85552    -1.49867    -1.01400    -0.49531
END_CFG

BEGIN_CFG
 Size
    28
 Supercell
         8.207930      0.000000     -0.000186
         0.000000      3.831060      0.000000
        -0.000191      0.000000      9.159140
 AtomData:  id type       cartes_x      cartes_y      cartes_z           fx          fy          fz
             1    0       8.118290      0.083000      0.371450     0.097365   -0.154663    0.136793
             2    0       2.097100      1.893930      5.016210    -0.191307    0.065177    0.112976
             3    0       4.040350      1.960910      1.865780     0.217884   -0.121210   -0.070114
             4    0       6.149610      0.012600      6.418960     0.162499    0.012026    0.178072
             5    1       0.088520      3.770500      2.452470    -3.266706    0.397810   -1.377363
             6    1       4.070510      0.052500      2.561190     0.105782   -0.246824   -0.003082
             7    1       1.973470      2.001510      7.013430     1.114004   -0.387171    0.212908
             8    1       6.187080      1.893490      7.049050    -0.653988    0.021117    0.550255
             9    1       0.025370      1.939330      4.736130     0.197200   -0.649314    0.621427
            10    1       3.984610      1.979710      4.926980     0.163527   -0.710566   -0.764863
            11    1       2.048830      0.086720      0.300990    -0.852417   -0.373779   -0.415249
            12    1       6.150100      0.019880      0.335780     0.391625   -0.759301   -0.578594
            13    1       1.970040      3.826440      4.321370     0.793348    0.299649    1.049928
            14    1       6.088560      0.077000      4.515330     1.912961   -0.176390   -0.193603
            15    1       8.134600      1.978370      8.904940     0.595761   -0.210072    0.749241
            16    1       4.124220      1.855390      9.012140    -1.285953    0.324663    1.297702
            17    1       2.175510      2.006870      1.964020    -0.500937   -1.396661    0.535724
            18    1       5.988670      1.854750      1.998730     0.456823    1.327348    0.690359
            19    1       8.063210      3.816240      6.672180     0.339428    0.868402   -0.477313
            20    1       4.247430      3.795100      6.593150    -0.352730    1.250619    0.714329
            21    2       8.183360      3.771480      4.366920    -1.449019    0.593920    1.909522
            22    2       2.029100      2.006090      8.995120     0.936759    0.160449    0.357588
            23    2       4.121470      2.013690      7.135900    -1.035135   -0.603345   -2.977390
            24    2       6.125950      0.060720      2.535100     0.579916   -0.697023   -1.659162
            25    2       4.259800      0.024960      4.454700    -1.763243    0.089853    1.487831
            26    2       6.021680      1.858190      9.003090     0.841243    0.477812    1.033131
            27    2       0.058150      2.010610      7.009810    -0.412699   -0.565682   -1.018503
            28    2       1.885780      3.738420      2.471340     2.858008    1.163154   -2.102553
 Energy
       -225.319136030000
 PlusStress:  xx          yy          zz          yz          xz          xy
         2.40957   -10.18038     4.12690     0.34675    -0.11121    -0.66884
END_CFG

BEGIN_CFG
 Size
    28
 Supercell
         8.207930      0.000000     -0.000186
         0.000000      3.831060      0.000000
        -0.000191      0.000000      9.159140
 AtomData:  id type       cartes_x      cartes_y      cartes_z           fx          fy          fz
             1    0       8.185750      0.060920      0.327530     0.517384    0.005455    0.074476
             2    0       2.159880      1.940510      4.971530    -0.549470   -0.093718    0.011633
             3    0       4.057970      1.876190      1.945120     0.148078   -0.022844   -0.328378
             4    0       6.117940      3.736120      6.515120     0.051849    0.310618   -0.144117
             5    1       0.056400      0.082500      2.322070    -0.704195   -0.697603    1.242039
             6    1       4.073430      0.019500      2.637250    -0.016915   -0.400046   -2.764474
             7    1       2.132170      1.890110      6.989350    -1.781486   -0.077388   -1.904158
             8    1       6.115440      1.883810      7.113210     0.809231   -0.103532   -1.077266
             9    1       8.196540      1.941610      4.726030     0.719211   -1.002383    0.967336
            10    1       4.093350      1.976530      4.890320    -0.564782   -0.446688   -0.610893
            11    1       2.023580      0.078040      0.242230     0.114634   -1.089156   -0.538961
            12    1       6.280940      0.073980      0.196570    -0.443637   -1.496371    0.241656
            13    1       1.983240      3.771100      4.224470     1.145471    0.529356    4.284107
            14    1       6.181100      3.821060      4.383850    -1.314660    0.209124    0.792118
            15    1       0.042410      1.986290      8.916720    -0.347063   -0.290407   -1.266049
            16    1       4.109560      1.866230      8.990720     0.642117    0.461690    0.257760
            17    1       2.109870      1.849370      1.958240     0.548077    1.087075    0.768981
            18    1       6.098950      1.825610      2.056230    -0.507484    1.198122   -0.299198
            19    1       8.037670      3.750340      6.659000     0.530808    1.030948   -0.824201
            20    1       4.211970      0.006860      6.649730    -0.252813    0.273953   -0.336663
            21    2       8.111220      3.789060      4.414840    -0.419714    0.549589   -1.531427
            22    2       2.171160      1.954510      8.897110    -1.318769    0.160734    2.325192
            23    2       4.051370      1.975290      6.982580     0.890634   -0.291385    0.465114
            24    2       6.231890      3.745920      2.421820     0.981861    0.064832   -0.201247
            25    2       4.161320      0.067800      4.422270     1.706139   -0.279750    2.915242
            26    2       6.061820      1.886350      8.981510     0.464821    0.547735    1.235515
            27    2       0.076870      1.900170      6.903690     0.146639   -0.261077    1.595940
            28    2       1.971700      3.738260      2.463100    -1.195965    0.123118   -5.350077
 Energy
       -225.245065220000
 PlusStress:  xx          yy          zz          yz          xz          xy
        -4.41505    -8.62244     4.02304     1.25671    -0.45159    -0.14063
END_CFG

BEGIN_CFG
 Size
    28
 Supercell
         8.207930      0.000000     -0.000186
         0.000000      3.831060      0.000000
        -0.000191      0.000000      9.159140
 AtomData:  id type       cartes_x      cartes_y      cartes_z           fx          fy          fz
             1    0       0.048290      0.035220      0.253580    -0.258123   -0.312871    0.279112
             2    0       2.090120      1.879330      4.940230    -0.073822    0.280209   -0.009861
             3    0       4.171830      1.942870      1.931400    -0.304881    0.037604   -0.197599
             4    0       6.152680      3.744860      6.449800     0.152287    0.244589    0.027000
             5    1       8.201090      0.021140      2.491130     1.034702    0.027630   -2.367951
             6    1       4.056870      0.064100      2.460650     0.631594   -0.352686    0.485426
             7    1       2.075270      1.963250      6.982630     0.125796    0.014234   -1.113497
             8    1       6.153160      1.870050      7.134670     0.377806    0.507766   -1.377970
             9    1       0.077730      1.946570      4.837210     0.011744   -0.631758   -0.017901
            10    1       4.003390      1.994450      4.801160    -0.036461   -0.212544    0.184988
            11    1       1.925390      0.039400      0.327370     0.276736   -0.608984   -1.178138
            12    1       6.308600      0.092620      0.347570    -0.036233   -1.285494   -0.753852
            13    1       1.979600      0.072540      4.242150     0.715846   -0.283924    1.555157
            14    1       6.090750      0.084280      4.537330     1.516463   -0.240468   -1.208298
            15    1       8.167640      1.817330      8.881600     0.852559    1.384792   -0.387556
            16    1       4.196120      2.007730      9.127420    -0.969930   -0.208286   -1.647239
            17    1       2.146870      1.861010      2.041040    -0.217415    1.264285    0.009884
            18    1       6.129230      1.947930      2.052310    -0.116139    0.183884    0.203416
            19    1       0.008510      0.057760      6.660240    -0.438010   -1.850016   -0.327928
            20    1       4.174710      0.055400      6.668710     0.139374   -0.737087   -0.384120
            21    2       8.184800      3.739400      4.322200    -1.317597    0.971203    2.634407
            22    2       2.056940      1.932510      8.896070     0.974580   -0.146274    2.613282
            23    2       4.088130      1.876710      7.041080    -0.776580    0.620402    0.620145
            24    2       6.286350      3.829960      2.374600    -1.433534    0.067075    1.142946
            25    2       4.242200      0.069160      4.406090    -0.433382   -0.091407    0.375332
            26    2       6.107760      1.901310      8.979790    -0.198489    0.479990    2.236982
            27    2       0.132490      1.825090      6.913610    -0.140605    1.201615    0.348684
            28    2       2.037140      3.820480      2.395340    -0.058288   -0.323477   -1.744850
 Energy
       -225.475010190000
 PlusStress:  xx          yy          zz          yz          xz          xy
        -3.93985    -6.02902     0.98786    -0.14869     0.59875    -0.14735
END_CFG

BEGIN_CFG
 Size
    28
 Supercell
         8.207930      0.000000     -0.000186
         0.000000      3.831060      0.000000
        -0.000191      0.000000      9.159140
 AtomData:  id type       cartes_x      cartes_y      cartes_z           fx          fy          fz
             1    0       8.117750      3.800240      0.324130     0.575591    0.107155    0.007635
             2    0       2.152700      1.976030      4.859490    -0.602662   -0.271889    0.616109
             3    0       4.053390      1.840190      2.001000     0.395051    0.227189   -0.336167
             4    0       6.141610      3.800920      6.424440     0.462302    0.166641    0.103272
             5    1       8.116010      3.745040      2.367190     2.750212    0.321638   -0.069581
             6    1       4.030290      0.011380      2.620750     0.651959   -0.264954   -0.861469
             7    1       2.001470      1.991410      6.944090     1.120187   -0.223623    0.737750
             8    1       6.263180      1.944150      7.184030    -1.087644   -0.094905   -1.791582
             9    1       0.113050      2.003330      4.811490     0.037521   -1.503419   -0.316944
            10    1       4.048630      1.916670      4.857660    -0.051543   -0.023128    0.019104
            11    1       1.902880      0.023140      0.317830     0.711919   -0.175763   -0.883407
            12    1       6.156820      3.770000      0.234730     0.425449    1.049733    0.327758
            13    1       2.147080      0.000420      4.226650    -1.210622    0.387604    4.816797
            14    1       6.127840      0.001080      4.450830     0.227092    0.068519    0.840164
            15    1       8.179360      1.922030      8.814980     0.270567   -0.171158    0.273275
            16    1       4.156860      1.885850      9.008080    -0.513268   -0.015046    0.545709
            17    1       2.067710      1.938310      1.949860     0.491161   -0.555089    0.871848
            18    1       6.084490      1.862290      2.035250    -0.163312    0.205368    0.311286
            19    1       0.013130      0.080420      6.572880    -0.710482   -1.968751   -0.582042
            20    1       4.280630      3.827300      6.630610    -0.332948    0.877878   -0.108520
            21    2       8.147220      3.784760      4.340800     0.057091    1.216909    0.937079
            22    2       2.209820      1.899050      8.961000    -1.334949    0.238537   -0.012003
            23    2       4.128170      2.010710      7.033880    -1.104903   -0.958857   -0.222648
            24    2       6.310870      3.801040      2.557160    -2.642236   -0.208925   -1.873767
            25    2       4.107280      3.810060      4.493360     1.738861    0.184492    0.675631
            26    2       6.106220      1.971890      9.072230    -0.031864   -0.726295    1.075525
            27    2       0.011610      1.816510      6.883350     1.570060    1.838095    0.924822
            28    2       2.025080      3.767160      2.479440    -1.698589    0.272045   -6.025633
 Energy
       -224.997148490000
 PlusStress:  xx          yy          zz          yz          xz          xy
        -0.99154    -2.94359     6.70965     0.11990     0.51797     0.36813
END_CFG

BEGIN_CFG
 Size
    28
 Supercell
         8.207930      0.000000     -0.000186
         0.000000      3.831060      0.000000
        -0.000191      0.000000      9.159140
 AtomData:  id type       cartes_x      cartes_y      cartes_z           fx          fy          fz
             1    0       8.161570      0.047500      0.430870     0.296074   -0.124501   -0.213304
             2    0       2.036220      1.887310      4.907090    -0.053396    0.116603    0.181560
             3    0       4.171770      1.913890      1.893960    -0.464676   -0.065084    0.171371