BEGIN_CFG
 Size
    8
 Supercell
         5.600000      0.000000      0.000000
         0.000000      5.600000      0.000000
         0.000000      0.000000      5.600000
 AtomData:  id type       cartes_x      cartes_y      cartes_z      charge
             1    0       0.000000      0.000000      0.000000      1.0000
             2    0       2.800000      2.800000      0.000000      1.0000
             3    0       0.000000      2.800000      2.800000      1.0000
             4    0       2.800000      0.000000      2.800000      1.0000
             5    1       0.000000      2.800000      0.000000     -1.0000
             6    1       2.800000      0.000000      0.000000     -1.0000
             7    1       0.000000      0.000000      2.800000     -1.0000
             8    1       2.800000      2.800000      2.800000     -1.0000
END_CFG

