BEGIN_CFG
 Size
    8
 Supercell
         5.600000      0.000000      0.000000
         0.000000      5.600000      0.000000
         0.000000      0.000000      5.600000
 AtomData:  id type       cartes_x      cartes_y      cartes_z           fx          fy          fz      charge
             1    11       5.264550      0.223640      0.111820     0.734550    0.011962   -0.236318      0.8692
             2    11       3.023640      3.023640      5.488180    -0.275999   -1.074298   -0.257222      0.8643
             3    17       5.376360      2.911820      2.688180     0.399420   -0.304365    0.121541      0.8685
             4    11       2.464550      0.111820      3.023640     0.992538   -0.736881    0.138423      0.8648
             5    17       0.111820      3.023640      0.000000    -0.074499   -0.410010   -0.439810     -0.8712
             6    17       2.800000      5.376360      0.223640    -0.505689    1.201025   -0.393508     -0.8629
             7    17       0.111820      5.488180      2.688180    -1.232307    0.359382    0.448060     -0.8620
             8    17       2.800000      2.464550      2.464550    -0.038015    0.953185    0.618835     -0.8706
 Energy
        -25.960578530000
 PlusStress:  xx          yy          zz          yz          xz          xy
         5.33108     6.05538     1.86001    -0.18905     0.37758     0.69166
END_CFG

BEGIN_CFG
 Size
    8
 Supercell
         5.600000      0.000000      0.000000
         0.000000      5.600000      0.000000
         0.000000      0.000000      5.600000
 AtomData:  id type       cartes_x      cartes_y      cartes_z           fx          fy          fz      charge
             1    11       5.264550      0.223640      0.000000     0.197396   -0.293631    0.109477      0.8706
             2    11       2.800000      2.576360      0.223640     0.325851    0.369612   -1.213564      0.8647
             3    11       0.111820      2.911820      2.688180    -1.075392   -0.396643    0.471307      0.8632
             4    17       2.688180      0.000000      3.023640    -0.218294   -0.318906   -2.070460      0.8610
             5    17       0.223640      2.911820      0.111820    -1.032716   -0.111370   -0.605794     -0.8703
             6    11       2.464550      0.000000      5.264550     0.166243   -0.191069    2.369776     -0.8639
             7    11       5.264550      5.376360      2.911820     0.248423    0.739418   -0.334156     -0.8660
             8    11       2.464550      2.576360      2.576360     1.388490    0.202589    1.273415     -0.8593
 Energy
        -25.638932800000
 PlusStress:  xx          yy          zz          yz          xz          xy
         4.98655     2.90689     9.16984     0.11454    -0.71854    -1.04525
END_CFG

BEGIN_CFG
 Size
    8
 Supercell
         5.600000      0.000000      0.000000
         0.000000      5.600000      0.000000
         0.000000      0.000000      5.600000
 AtomData:  id type       cartes_x      cartes_y      cartes_z           fx          fy          fz      charge
             1    11       5.376360      5.264550      5.376360    -0.169895    1.586910    1.076684      0.8585
             2    11       2.688180      2.800000      5.264550     0.504347   -0.168762    0.526832      0.8689
             3    11       5.488180      2.800000      2.800000    -0.008807   -0.119118    0.006308      0.8679
             4    11       2.464550      5.264550      2.688180     0.217348    1.322822    0.489601      0.8627
             5    17       0.223640      3.023640      0.111820    -0.673641   -1.733181   -0.021977     -0.8617
             6    17       2.688180      0.000000      0.223640     0.130317    0.197588   -0.902199     -0.8719
             7    17       5.488180      0.000000      3.023640    -0.287899    0.252501   -1.141279     -0.8640
             8    17       2.688180      2.911820      2.688180     0.288229   -1.338759   -0.033971     -0.8604
 Energy
        -25.880653490000
 PlusStress:  xx          yy          zz          yz          xz          xy
         2.90253     7.25160     5.59238    -1.34817    -0.46704    -0.97316
END_CFG

