BEGIN_CFG
 Size
    8
 Supercell
         5.600000      0.000000      0.000000
         0.000000      5.600000      0.000000
         0.000000      0.000000      5.600000
 AtomData:  id type       cartes_x      cartes_y      cartes_z           fx          fy          fz      charge
             1    0       5.376360      5.376360      5.376360     0.630840    0.705894    0.402646      0.8611
             2    0       2.800000      2.800000      5.488180    -0.413058   -0.422290    0.236069      0.8664
             3    0       5.376360      2.688180      3.023640     0.346349    0.151842   -0.326344      0.8670
             4    0       2.464550      0.000000      2.688180     0.174461   -0.645228    0.214134      0.8635
             5    1       5.376360      2.911820      0.111820     0.709549   -0.885130    0.041970     -0.8651
             6    1       2.911820      5.376360      0.111820    -1.047854    0.490851   -0.395217     -0.8662
             7    1       5.376360      0.000000      2.800000     0.178443   -0.276470   -0.197649     -0.8639
             8    1       2.800000      2.464550      2.800000    -0.578731    0.880532    0.024391     -0.8628
 Energy
        -26.341218190000
 PlusStress:  xx          yy          zz          yz          xz          xy
         4.04945     4.70850     2.46275     0.08450    -0.26923     0.06313
END_CFG

BEGIN_CFG
 Size
    8
 Supercell
         5.600000      0.000000      0.000000
         0.000000      5.600000      0.000000
         0.000000      0.000000      5.600000
 AtomData:  id type       cartes_x      cartes_y      cartes_z           fx          fy          fz      charge
             1    0       5.376360      0.223640      5.264550    -0.159300   -0.660643    0.680688      0.8691
             2    0       2.464550      2.911820      0.111820     0.637908   -0.418536   -0.269360      0.8675
             3    0       5.264550      3.023640      2.911820     1.853279   -1.110344   -0.407137      0.8503
             4    0       2.576360      5.376360      2.576360     0.011107    0.414341    0.764719      0.8676
             5    1       0.000000      2.688180      5.376360    -0.572899    0.562249    0.668422     -0.8642
             6    1       2.464550      5.488180      0.111820     0.280403    0.483840   -0.891660     -0.8690
             7    1       5.376360      5.376360      2.800000     0.228129    1.390074   -0.674888     -0.8583
             8    1       3.023640      2.800000      2.688180    -2.278629   -0.660981    0.129216     -0.8632
 Energy
        -25.729902840000
 PlusStress:  xx          yy          zz          yz          xz          xy
         6.67397     6.84167     5.09483    -0.10702     1.21727     0.85796
END_CFG

BEGIN_CFG
 Size
    8
 Supercell
         5.600000      0.000000      0.000000
         0.000000      5.600000      0.000000
         0.000000      0.000000      5.600000
 AtomData:  id type       cartes_x      cartes_y      cartes_z           fx          fy          fz      charge
             1    0       0.000000      5.488180      0.223640    -0.029284    0.768468   -2.106990      0.8559
             2    0       3.023640      3.023640      0.223640    -0.117159   -0.947734   -1.447773      0.8553
             3    0       5.264550      2.576360      2.688180     0.427423    0.067769    0.644811      0.8683
             4    0       2.464550      0.223640      2.464550    -0.008358   -1.403411    0.202737      0.8637
             5    1       0.000000      3.023640      0.223640     0.195907   -1.346207   -1.084992     -0.8615
             6    1       2.576360      5.264550      5.264550     0.139179    1.639802   -0.241730     -0.8694
             7    1       5.264550      5.376360      2.464550    -0.123430    0.380594    2.263623     -0.8583
             8    1       2.688180      2.576360      2.464550    -0.484280    0.840720    1.770314     -0.8539
 Energy
        -25.183523380000
 PlusStress:  xx          yy          zz          yz          xz          xy
         3.62508     8.49265     9.87080    -1.44121    -1.19232    -0.23245
END_CFG

BEGIN_CFG
 Size
    8
 Supercell
         5.600000      0.000000      0.000000
         0.000000      5.600000      0.000000
         0.000000      0.000000      5.600000
 AtomData:  id type       cartes_x      cartes_y      cartes_z           fx          fy          fz      charge
             1    0       5.264550      5.488180      5.264550     1.235419    0.295795    0.654210      0.8586
             2    0       2.576360      3.023640      0.000000     0.373390   -0.202598   -0.072009      0.8687
             3    0       5.376360      2.576360      2.464550     0.394875   -0.116751    0.048455      0.8714
             4    0       2.464550      5.264550      3.023640     2.228527    0.312694   -0.077226      0.8601
             5    1       0.000000      2.911820      5.264550    -0.270211   -0.570685    0.399612     -0.8644
             6    1       3.023640      0.223640      0.223640    -1.516667   -0.246301   -0.016567     -0.8726
             7    1       0.223640      5.264550      2.911820    -2.123784    0.378260   -1.206663     -0.8542
             8    1       2.800000      2.576360      2.688180    -0.321549    0.149586    0.270187     -0.8677
 Energy
        -25.737145020000
 PlusStress:  xx          yy          zz          yz          xz          xy
         9.69077     1.93885     3.34149    -0.10060    -1.11771    -0.59751
END_CFG

BEGIN_CFG
 Size
    8
 Supercell
         5.600000      0.000000      0.000000
         0.000000      5.600000      0.000000
         0.000000      0.000000      5.600000
 AtomData:  id type       cartes_x      cartes_y      cartes_z           fx          fy          fz      charge
             1    0       5.376360      0.223640      0.000000     0.482308   -1.264544   -0.678109      0.8557
             2    0       2.688180      2.576360      0.000000     0.308065    0.205031    0.005382      0.8674
             3    0       5.264550      2.464550      2.800000     0.062674    0.889483    0.146199      0.8656
             4    0       2.464550      0.223640      2.800000     0.161798   -1.010463   -0.140786      0.8684
             5    1       0.111820      2.576360      0.111820    -0.519778    1.202661   -0.427174     -0.8619
             6    1       2.911820      5.376360      5.488180    -0.763796    0.098839   -0.020825     -0.8700
             7    1       5.376360      0.000000      2.464550    -0.039348   -0.795114    1.057117     -0.8630
             8    1       2.464550      2.688180      2.800000     0.308077    0.674108    0.058197     -0.8622
 Energy
        -26.131759780000
 PlusStress:  xx          yy          zz          yz          xz          xy
         3.18830     6.31636     3.12934    -0.14006     0.19928     0.76120
END_CFG

BEGIN_CFG
 Size
    8
 Supercell
         5.600000      0.000000      0.000000
         0.000000      5.600000      0.000000
         0.000000      0.000000      5.600000
 AtomData:  id type       cartes_x      cartes_y      cartes_z           fx          fy          fz      charge
             1    0       0.223640      5.264550      0.000000    -0.635259    0.616717   -0.546350      0.8636
             2    0       2.688180      2.800000      5.488180    -0.094238   -0.087325    0.603495      0.8615
             3    0       5.488180      2.688180      2.688180    -0.145450    0.516983   -0.056008      0.8674
             4    0       2.911820      5.488180      2.576360     0.076025   -0.018975    0.111522      0.8722
             5    1       5.376360      2.800000      5.376360     0.152552   -0.379172    0.361758     -0.8663
             6    1       2.688180      0.000000      5.376360     0.762661   -0.189021    0.202952     -0.8632
             7    1       0.223640      0.223640      2.464550    -0.556309   -1.008558    0.521318     -0.8681
             8    1       2.576360      2.576360      3.023640     0.440019    0.549352   -1.198688     -0.8670
 Energy
        -26.235463160000
 PlusStress:  xx          yy          zz          yz          xz          xy
         3.16951     3.78505     3.71044     0.74393     0.15026     0.18580
END_CFG

BEGIN_CFG
 Size
    8
 Supercell
         5.600000      0.000000      0.000000
         0.000000      5.600000      0.000000
         0.000000      0.000000      5.600000
 AtomData:  id type       cartes_x      cartes_y      cartes_z           fx          fy          fz      charge
             1    0       5.376360      0.000000      5.488180     1.261663   -0.104075    0.420733      0.8643
             2    0       2.464550      2.800000      0.000000     1.939357    0.149147    0.566941      0.8607
             3    0       5.376360      2.464550      2.800000    -0.173110    1.243165   -0.518027      0.8636
             4    0       2.800000      5.264550      2.911820    -0.422860    0.046406   -0.480382      0.8712
             5    1       0.223640      2.800000      5.264550    -2.339256    0.306717    0.989546     -0.8640
             6    1       3.023640      0.223640      5.376360    -1.397690   -0.617382    1.038072     -0.8645
             7    1       5.376360      0.111820      2.911820     0.467430   -1.614016   -0.833519     -0.8639
             8    1       2.464550      2.464550      3.023640     0.664466    0.590037   -1.183365     -0.8674
 Energy
        -25.362443100000
 PlusStress:  xx          yy          zz          yz          xz          xy
         9.27288     4.21415     5.23683     0.25178     0.36084    -0.62875
END_CFG

BEGIN_CFG
 Size
    8
 Supercell
         5.600000      0.000000      0.000000
         0.000000      5.600000      0.000000
         0.000000      0.000000      5.600000
 AtomData:  id type       cartes_x      cartes_y      cartes_z           fx          fy          fz      charge
             1    0       0.223640      0.111820      0.223640    -0.144521   -0.012744   -0.290704      0.8696
             2    0       3.023640      2.800000      0.111820    -0.168259   -0.346311   -0.194327      0.8695
             3    0       0.223640      3.023640      2.576360    -2.178007    0.021299    0.376867      0.8609
             4    0       2.576360      0.000000      2.911820     0.200191    0.189892   -0.056228      0.8693
             5    1       0.111820      2.911820      0.000000     0.054407   -0.140932   -0.267183     -0.8648
             6    1       3.023640      5.376360      0.000000    -0.329921    0.751257    0.236559     -0.8705
             7    1       5.376360      0.223640      2.911820     0.266571   -0.101435   -0.059754     -0.8704
             8    1       2.464550      2.911820      2.800000     2.299538   -0.361026    0.254769     -0.8636
 Energy
        -26.284532850000
 PlusStress:  xx          yy          zz          yz          xz          xy
         5.80588     1.77131     2.28272    -0.07250     0.58825     0.17827
END_CFG

BEGIN_CFG
 Size
    8
 Supercell
         5.600000      0.000000      0.000000
         0.000000      5.600000      0.000000
         0.000000      0.000000      5.600000
 AtomData:  id type       cartes_x      cartes_y      cartes_z           fx          fy          fz      charge
             1    0       5.376360      0.000000      0.223640     1.033684   -0.130226   -2.066943      0.8574
             2    0       2.800000      2.911820      5.264550     0.029331   -0.773902    0.262289      0.8662
             3    0       5.488180      2.800000      2.911820     0.706531    0.125320   -0.055079      0.8676
             4    0       3.023640      0.000000      2.576360    -0.854684   -0.382181    0.071285      0.8640
             5    1       0.111820      2.688180      0.111820    -0.019303    0.287437   -0.465689     -0.8697
             6    1       3.023640      5.376360      5.376360    -1.141063    0.648445   -0.218798     -0.8638
             7    1       5.488180      0.111820      2.464550     1.134532   -0.379158    2.428958     -0.8585
             8    1       3.023640      2.576360      2.576360    -0.889027    0.604265    0.043977     -0.8632
 Energy
        -25.862279390000
 PlusStress:  xx          yy          zz          yz          xz          xy
         6.18374     3.61965     6.09207     0.19728     0.49418     0.46641
END_CFG

BEGIN_CFG
 Size
    8
 Supercell
         5.600000      0.000000      0.000000
         0.000000      5.600000      0.000000
         0.000000      0.000000      5.600000
 AtomData:  id type       cartes_x      cartes_y      cartes_z           fx          fy          fz      charge
             1    0       5.264550      0.000000      0.111820     0.243322    0.154946   -0.314577      0.8705
             2    0       2.800000      2.576360      0.000000     0.131674    1.189786   -0.243747      0.8641
             3    0       0.111820      2.688180      2.464550     0.049301   -0.078593    0.207519      0.8688
             4    0       2.911820      0.000000      2.688180    -0.013604   -0.793284    0.017718      0.8655
             5    1       0.111820      3.023640      5.264550    -0.428616   -0.549465    0.438659     -0.8713
             6    1       2.464550      0.223640      5.376360     0.479524   -1.339655    0.371726     -0.8652
             7    1       0.223640      5.376360      2.800000    -0.617869    0.361579   -0.360473     -0.8668
             8    1       2.911820      2.464550      2.688180     0.156268    1.054686   -0.116825     -0.8656
 Energy
        -26.208530800000
 PlusStress:  xx          yy          zz          yz          xz          xy
         0.99326     5.63295     2.02115     0.30377     0.07457     0.58299
END_CFG

BEGIN_CFG
 Size
    8
 Supercell
         5.600000      0.000000      0.000000
         0.000000      5.600000      0.000000
         0.000000      0.000000      5.600000
 AtomData:  id type       cartes_x      cartes_y      cartes_z           fx          fy          fz      charge
             1    0       0.000000      5.264550      5.264550    -0.217963    0.741274    0.126315      0.8675
             2    0       2.576360      2.800000      5.488180     0.188095    0.318987    0.267615      0.8676
             3    0       5.376360      2.688180      2.800000     0.499985    0.141641    0.012389      0.8651
             4    0       3.023640      0.223640      2.911820    -0.303335   -1.265997   -0.696279      0.8614
             5    1       5.488180      2.800000      0.111820    -0.197988   -0.435368   -0.463724     -0.8650
             6    1       2.576360      0.223640      5.376360     0.383970   -0.787920    0.604199     -0.8661
             7    1       0.000000      0.000000      2.464550     0.139771   -0.299554    0.369985     -0.8720
             8    1       2.800000      2.576360      2.800000    -0.492534    1.586937   -0.220502     -0.8586
 Energy
        -26.223613400000
 PlusStress:  xx          yy          zz          yz          xz          xy
         2.73160     5.89062     2.74260    -0.36636    -0.28404    -0.07758
END_CFG

BEGIN_CFG
 Size
    8
 Supercell
         5.600000      0.000000      0.000000
         0.000000      5.600000      0.000000
         0.000000      0.000000      5.600000
 AtomData:  id type       cartes_x      cartes_y      cartes_z           fx          fy          fz      charge
             1    0       0.111820      0.223640      5.488180     0.123675   -1.176946    0.390412      0.8646
             2    0       3.023640      2.576360      5.376360    -0.584531   -0.141619    1.240714      0.8582
             3    0       5.488180      2.911820      2.576360     0.478135   -0.471664    1.063350      0.8614
             4    0       2.464550      5.264550      2.800000     0.370783    0.323677   -0.127690      0.8709
             5    1       5.488180      2.576360      0.223640     0.898997    0.872363   -0.938770     -0.8565
             6    1       3.023640      5.264550      5.488180    -0.660002    0.417834    0.516791     -0.8733
             7    1       5.376360      5.376360      3.023640     0.386273    0.622488   -0.710491     -0.8630
             8    1       3.023640      2.688180      3.023640    -1.013330   -0.446134   -1.434317     -0.8623
 Energy
        -25.719318350000
 PlusStress:  xx          yy          zz          yz          xz          xy
         3.49835     5.37105     7.69307     1.13493    -0.00356    -0.02964
END_CFG

BEGIN_CFG
 Size
    8
 Supercell
         5.600000      0.000000      0.000000
         0.000000      5.600000      0.000000
         0.000000      0.000000      5.600000
 AtomData:  id type       cartes_x      cartes_y      cartes_z           fx          fy          fz      charge
             1    0       5.264550      0.000000      5.264550     0.859017   -0.277803    0.274088      0.8638
             2    0       3.023640      2.576360      5.264550    -0.475635    0.019082    0.226929      0.8661
             3    0       5.264550      2.800000      3.023640     0.690598    0.120795   -0.839956      0.8626
             4    0       2.800000      5.376360      2.464550    -0.780457    0.005008    0.310723      0.8635
             5    1       0.111820      2.576360      5.488180     0.040554    0.452840    0.306252     -0.8629
             6    1       2.800000      5.376360      5.488180    -0.712048   -0.073532   -0.612490     -0.8650
             7    1       5.264550      0.111820      2.576360     0.947801   -0.470116    0.084880     -0.8641
             8    1       2.800000      2.576360      2.464550    -0.569831    0.223725    0.249574     -0.8641
 Energy
        -26.271242460000
 PlusStress:  xx          yy          zz          yz          xz          xy
         5.02467     2.00112     3.25852    -0.07856     0.15384     0.35734
END_CFG

BEGIN_CFG
 Size
    8
 Supercell
         5.600000      0.000000      0.000000
         0.000000      5.600000      0.000000
         0.000000      0.000000      5.600000
 AtomData:  id type       cartes_x      cartes_y      cartes_z           fx          fy          fz      charge
             1    0       0.223640      0.000000      5.376360    -1.269505   -0.307445    0.221223      0.8644
             2    0       2.800000      2.688180      5.376360     0.096291    0.762667    0.053048      0.8633
             3    0       5.264550      2.576360      2.911820     0.497678    0.137615   -0.084153      0.8688
             4    0       2.911820      0.111820      2.800000    -0.675220   -0.242864   -0.771215      0.8635
             5    1       0.111820      2.688180      0.223640    -0.516170    0.209656   -0.771835     -0.8699
             6    1       2.576360      0.223640      5.264550     1.341011   -0.837059    0.520255     -0.8552
             7    1       5.376360      5.376360      2.576360     0.655454    0.171099    0.261191     -0.8696
             8    1       2.688180      2.800000      2.464550    -0.129538    0.106331    0.571487     -0.8653
 Energy
        -26.128290730000
 PlusStress:  xx          yy          zz          yz          xz          xy
         5.89374     2.92663     2.41993     0.35738    -0.62046     0.05972
END_CFG

BEGIN_CFG
 Size
    8
 Supercell
         5.600000      0.000000      0.000000
         0.000000      5.600000      0.000000
         0.000000      0.000000      5.600000
 AtomData:  id type       cartes_x      cartes_y      cartes_z           fx          fy          fz      charge
             1    0       5.488180      0.000000      5.488180    -0.276356    0.489954    0.552476      0.8620
             2    0       2.911820      3.023640      0.111820    -0.402221   -0.274292   -0.475255      0.8661
             3    0       0.111820      2.911820      2.576360    -0.615135   -1.021227   -0.198778      0.8607
             4    0       2.800000      5.376360      2.576360    -0.133129    0.268632    0.752151      0.8671
             5    1       5.488180      3.023640      5.264550     0.113291   -0.880428    0.798142     -0.8587
             6    1       2.464550      0.111820      0.111820     0.603342    0.093814   -0.563319     -0.8649
             7    1       5.488180      5.264550      3.023640    -0.140698    1.480674   -1.121227     -0.8683
             8    1       2.576360      2.688180      2.688180     0.850908   -0.157126    0.255810     -0.8639
 Energy
        -26.054488500000
 PlusStress:  xx          yy          zz          yz          xz          xy
         3.40499     4.71634     4.70996     0.04736     0.14777    -0.23325
END_CFG

BEGIN_CFG
 Size
    8
 Supercell
         5.600000      0.000000      0.000000
         0.000000      5.600000      0.000000
         0.000000      0.000000      5.600000
 AtomData:  id type       cartes_x      cartes_y      cartes_z           fx          fy          fz      charge
             1    0       5.376360      5.376360      0.111820     0.621648    0.563318   -0.237906      0.8642
             2    0       2.464550      2.800000      5.376360     2.078607   -0.350142   -0.187218      0.8638
             3    0       0.111820      2.464550      2.688180    -0.158510    0.244028    0.286804      0.8671
             4    0       2.576360      5.488180      2.576360     0.355610   -0.146672    1.133663      0.8623
             5    1       0.223640      2.911820      0.111820    -1.934551   -0.841622   -0.325368     -0.8573
             6    1       2.911820      5.376360      0.223640    -0.639012    0.383043   -1.471814     -0.8640
             7    1       0.000000      5.376360      2.800000    -0.232758    0.035515    0.368889     -0.8628
             8    1       2.911820      2.576360      2.576360    -0.091035    0.112533    0.432950     -0.8734
 Energy
        -25.963478760000
 PlusStress:  xx          yy          zz          yz          xz          xy
         7.59597     3.03225     4.22557     0.18608    -0.90066    -0.28726
END_CFG

BEGIN_CFG
 Size
    8
 Supercell
         5.600000      0.000000      0.000000
         0.000000      5.600000      0.000000
         0.000000      0.000000      5.600000
 AtomData:  id type       cartes_x      cartes_y      cartes_z           fx          fy          fz      charge
             1    0       5.264550      0.000000      0.223640     0.516226   -0.557991   -1.614318      0.8550
             2    0       3.023640      2.688180      5.376360    -0.523687   -0.100284    1.117030      0.8595
             3    0       5.264550      2.800000      2.576360     0.833263    0.012637    0.183895      0.8693
             4    0       2.911820      5.376360      2.688180    -0.121682   -0.016681    0.097666      0.8691
             5    1       0.000000      2.464550      5.488180     0.274328    0.922687   -0.100319     -0.8637
             6    1       2.800000      5.376360      5.488180    -0.394274   -0.058065    0.058188     -0.8621
             7    1       0.223640      0.111820      2.464550    -0.190744   -0.575835    1.733248     -0.8658
             8    1       2.800000      2.464550      3.023640    -0.393430    0.373533   -1.475391     -0.8614
 Energy
        -25.831970560000
 PlusStress:  xx          yy          zz          yz          xz          xy
         4.22249     2.76416     7.45497     0.19284     1.10298     0.14530
END_CFG

BEGIN_CFG
 Size
    8
 Supercell
         5.600000      0.000000      0.000000
         0.000000      5.600000      0.000000
         0.000000      0.000000      5.600000
 AtomData:  id type       cartes_x      cartes_y      cartes_z           fx          fy          fz      charge
             1    0       5.264550      0.000000      5.264550     0.219625   -0.002082    1.468099      0.8638
             2    0       2.800000      3.023640      5.264550    -0.376151   -0.506571    1.346785      0.8651
             3    0       5.488180      2.911820      2.576360     0.606095   -0.858529    0.888627      0.8595
             4    0       2.688180      5.376360      2.911820     0.585846    0.772970   -0.883979      0.8581
             5    1       5.376360      2.576360      0.223640     0.417051    0.209343   -1.220914     -0.8725
             6    1       2.688180      0.000000      5.376360    -0.213441    0.378894    1.074274     -0.8579
             7    1       0.223640      5.264550      3.023640    -0.547528    0.918871   -1.440574     -0.8551
             8    1       3.023640      2.911820      2.911820    -0.691496   -0.912895   -1.232318     -0.8608
 Energy
        -25.423621900000
 PlusStress:  xx          yy          zz          yz          xz          xy
         5.47663     5.37303    10.90246     1.83949    -0.83232     0.14210
END_CFG

BEGIN_CFG
 Size
    8
 Supercell
         5.600000      0.000000      0.000000
         0.000000      5.600000      0.000000
         0.000000      0.000000      5.600000
 AtomData:  id type       cartes_x      cartes_y      cartes_z           fx          fy          fz      charge
             1    0       5.488180      5.376360      5.264550    -0.362077    0.687223    1.233376      0.8616
             2    0       2.464550      2.911820      5.264550     1.129623   -1.077914   -0.092277      0.8636
             3    0       5.264550      2.688180      2.576360     0.831070   -0.171845    0.224455      0.8673
             4    0       2.911820      0.111820      2.576360    -0.078919   -1.352440    0.412433      0.8660
             5    1       0.111820      2.911820      0.000000    -1.521723   -1.151970   -0.191063     -0.8649
             6    1       2.464550      5.264550      0.111820     0.845705    1.322007   -0.483005     -0.8645
             7    1       0.111820      5.264550      2.911820    -0.260299    0.515723   -1.277133     -0.8675
             8    1       2.800000      2.464550      2.576360    -0.583380    1.229217    0.173215     -0.8616
 Energy
        -25.560575960000
 PlusStress:  xx          yy          zz          yz          xz          xy
         5.41435     7.96774     5.28662     0.54348    -0.33742     0.50873
END_CFG

BEGIN_CFG
 Size
    8
 Supercell
         5.600000      0.000000      0.000000
         0.000000      5.600000      0.000000
         0.000000      0.000000      5.600000
 AtomData:  id type       cartes_x      cartes_y      cartes_z           fx          fy          fz      charge
             1    0       5.488180      0.000000      5.488180     0.607255   -0.285125    0.343990      0.8679
             2    0       3.023640      2.800000      0.111820    -0.134853   -0.777820   -0.359428      0.8650
             3    0       5.376360      2.800000      3.023640    -0.051834   -0.141340   -1.080922      0.8663
             4    0       2.576360      5.376360      2.576360    -0.276781    0.275753    1.106151      0.8667
             5    1       0.223640      2.576360      5.376360    -0.093198    0.291282    1.220257     -0.8679
             6    1       3.023640      5.264550      0.223640    -0.665772    0.806518   -1.204416     -0.8617
             7    1       5.264550      5.488180      2.911820     0.450867    0.100853   -0.432036     -0.8670
             8    1       2.576360      2.688180      2.688180     0.164316   -0.270122    0.406404     -0.8692
 Energy
        -26.139972260000
 PlusStress:  xx          yy          zz          yz          xz          xy
         2.35445     3.52210     7.12131    -0.15157    -0.19341     0.42215
END_CFG

BEGIN_CFG
 Size
    8
 Supercell
         5.600000      0.000000      0.000000
         0.000000      5.600000      0.000000
         0.000000      0.000000      5.600000
 AtomData:  id type       cartes_x      cartes_y      cartes_z           fx          fy          fz      charge
             1    0       0.000000      0.111820      5.264550     0.018132   -0.039618    1.027849      0.8613
             2    0       2.576360      2.464550      5.376360    -0.052224    1.896380   -0.009347      0.8642
             3    0       0.000000      2.464550      2.911820     0.023903    1.456946   -0.455677      0.8627
             4    0       2.800000      5.264550      3.023640     0.047125    0.611605   -0.288287      0.8710
             5    1       5.376360      3.023640      5.488180     0.403008   -0.296737    0.130959     -0.8734
             6    1       2.911820      0.223640      0.111820    -0.197317   -1.854477   -0.009332     -0.8594
             7    1       0.000000      0.111820      2.800000     0.176716   -1.292736   -0.679262     -0.8569
             8    1       2.911820      2.800000      2.576360    -0.419343   -0.481363    0.283096     -0.8695
 Energy
        -25.937974150000
 PlusStress:  xx          yy          zz          yz          xz          xy
         1.02160     9.07042     2.90681    -0.13461     0.03542    -0.43531
END_CFG

BEGIN_CFG
 Size
    8
 Supercell
         5.600000      0.000000      0.000000
         0.000000      5.600000      0.000000
         0.000000      0.000000      5.600000
 AtomData:  id type       cartes_x      cartes_y      cartes_z           fx          fy          fz      charge
             1    0       0.111820      5.376360      0.111820    -1.135373    0.063889   -0.098596      0.8645
             2    0       2.464550      2.464550      0.111820     0.422023    2.241836   -0.284673      0.8578
             3    0       5.264550      2.911820      2.576360     1.139188   -0.001267    0.103097      0.8663
             4    0       2.576360      0.223640      2.576360     0.623844   -0.639559    1.383259      0.8566
             5    1       5.488180      2.688180      5.376360    -0.322411    0.228564    0.506172     -0.8667
             6    1       2.464550      0.223640      0.223640     1.273121   -2.328927   -1.110299     -0.8448
             7    1       0.111820      0.111820      3.023640    -0.815260   -0.316868   -0.442628     -0.8692