BEGIN_CFG
 Size
    8
 Supercell
         5.540515      0.000000      0.000000
         0.000000      5.540515      0.000000
         0.000000      0.000000      5.540515
 AtomData:  id type       cartes_x      cartes_y      cartes_z      charge
             1    1       0.069256      0.692564      3.047283     -0.8651
             2    1       3.255052      0.069256      3.255052     -0.8662
             3    1       0.207769      3.255052      2.908770     -0.8639
             4    1       3.393565      3.324309      3.462822     -0.8628
             5    0       0.277026      0.484795      0.554051      0.8611
             6    0       3.185796      0.277026      0.415539      0.8664
             7    0       0.484795      2.978027      0.692564      0.8670
             8    0       2.908770      2.978027      0.554051      0.8635
END_CFG

