BEGIN_CFG
 Size
    64
 Supercell
        11.081029      0.000000      0.000000
         0.000000     11.081029      0.000000
         0.000000      0.000000     11.081029
 AtomData:  id type       cartes_x      cartes_y      cartes_z      charge
             1    1       5.609771      6.233079      8.587798     -0.8651
             2    1       8.795567      5.609771      8.795567     -0.8662
             3    1       5.748284      8.795567      8.449285     -0.8639
             4    1       8.934080      8.864823      9.003336     -0.8628
             5    0       0.277026      0.484795      0.554051      0.8611
             6    0       3.185796      0.277026      0.415539      0.8664
             7    0       0.484795      2.978027      0.692564      0.8670
             8    0       2.908770      2.978027      0.554051      0.8635
             9    1       0.069256      0.692564      3.047283     -0.8651
            10    1       3.255052      0.069256      3.255052     -0.8662
            11    1       0.207769      3.255052      2.908770     -0.8639
            12    1       3.393565      3.324309      3.462822     -0.8628
            13    0       5.817540      0.484795      0.554051      0.8611
            14    0       8.726311      0.277026      0.415539      0.8664
            15    0       6.025310      2.978027      0.692564      0.8670
            16    0       8.449285      2.978027      0.554051      0.8635
            17    1       5.609771      0.692564      3.047283     -0.8651
            18    1       8.795567      0.069256      3.255052     -0.8662
            19    1       5.748284      3.255052      2.908770     -0.8639
            20    1       8.934080      3.324309      3.462822     -0.8628
            21    0       0.277026      6.025310      0.554051      0.8611
            22    0       3.185796      5.817540      0.415539      0.8664
            23    0       0.484795      8.518541      0.692564      0.8670
            24    0       2.908770      8.518541      0.554051      0.8635
            25    1       0.069256      6.233079      3.047283     -0.8651
            26    1       3.255052      5.609771      3.255052     -0.8662
            27    1       0.207769      8.795567      2.908770     -0.8639
            28    1       3.393565      8.864823      3.462822     -0.8628
            29    0       5.817540      6.025310      0.554051      0.8611
            30    0       8.726311      5.817540      0.415539      0.8664
            31    0       6.025310      8.518541      0.692564      0.8670
            32    0       8.449285      8.518541      0.554051      0.8635
            33    1       5.609771      6.233079      3.047283     -0.8651
            34    1       8.795567      5.609771      3.255052     -0.8662
            35    1       5.748284      8.795567      2.908770     -0.8639
            36    1       8.934080      8.864823      3.462822     -0.8628
            37    0       0.277026      0.484795      6.094566      0.8611
            38    0       3.185796      0.277026      5.956053      0.8664
            39    0       0.484795      2.978027      6.233079      0.8670
            40    0       2.908770      2.978027      6.094566      0.8635
            41    1       0.069256      0.692564      8.587798     -0.8651
            42    1       3.255052      0.069256      8.795567     -0.8662
            43    1       0.207769      3.255052      8.449285     -0.8639
            44    1       3.393565      3.324309      9.003336     -0.8628
            45    0       5.817540      0.484795      6.094566      0.8611
            46    0       8.726311      0.277026      5.956053      0.8664
            47    0       6.025310      2.978027      6.233079      0.8670
            48    0       8.449285      2.978027      6.094566      0.8635
            49    1       5.609771      0.692564      8.587798     -0.8651
            50    1       8.795567      0.069256      8.795567     -0.8662
            51    1       5.748284      3.255052      8.449285     -0.8639
            52    1       8.934080      3.324309      9.003336     -0.8628
            53    0       0.277026      6.025310      6.094566      0.8611
            54    0       3.185796      5.817540      5.956053      0.8664
            55    0       0.484795      8.518541      6.233079      0.8670
            56    0       2.908770      8.518541      6.094566      0.8635
            57    1       0.069256      6.233079      8.587798     -0.8651
            58    1       3.255052      5.609771      8.795567     -0.8662
            59    1       0.207769      8.795567      8.449285     -0.8639
            60    1       3.393565      8.864823      9.003336     -0.8628
            61    0       5.817540      6.025310      6.094566      0.8611
            62    0       8.726311      5.817540      5.956053      0.8664
            63    0       6.025310      8.518541      6.233079      0.8670
            64    0       8.449285      8.518541      6.094566      0.8635
END_CFG

