BEGIN_CFG
 Size
    1
 Supercell
    2.4089000000000000e+00 0.0000000000000000e+00 0.0000000000000000e+00
    -1.2138100000000001e+00 2.0441199999999999e+00 0.0000000000000000e+00
    -1.3731900000000000e-01 8.5924000000000000e-02 2.3212000000000002e+00
 AtomData:  id type       cartes_x      cartes_y      cartes_z           fx          fy          fz
    1 0  0.0000000000000000e+00 0.0000000000000000e+00 0.0000000000000000e+00  0.0000000000000000e+00 0.0000000000000000e+00 0.0000000000000000e+00
 Energy
    -1.6233137400000001e+02
END_CFG

BEGIN_CFG
 Size
    2
 Supercell
    3.5842420000000002e+00 0.0000000000000000e+00 0.0000000000000000e+00
    1.8250560000000000e+00 3.0365810000000000e+00 0.0000000000000000e+00
    1.8108660000000001e+00 1.0970299999999999e+00 2.8440409999999998e+00
 AtomData:  id type       cartes_x      cartes_y      cartes_z
    1 0  0.0000000000000000e+00 0.0000000000000000e+00 0.0000000000000000e+00
    2 0  1.7977853200000000e+00 1.0379524400000000e+00 7.3394459999999995e-01
 Energy
    -3.2526342499999998e+02
 PlusStress:  xx          yy          zz          yz          xz          xy
     6.4370043499999996e+00 8.7163880700000007e+00 1.0014214340000001e+01 -9.0406693999999999e-01 -1.0364597000000000e-01 -1.7498411999999999e-01
END_CFG

BEGIN_CFG
 Size
    27
 Supercell
    3.8762099999999999e+00 -6.5123379999999997e+00 -2.4565000000000000e-02
    3.8938830000000002e+00 6.5343159999999996e+00 -7.3419999999999996e-03
    -5.3219000000000002e-02 4.7829999999999999e-03 7.0877759999999999e+00
 AtomData:  id type       cartes_x      cartes_y      cartes_z           fx          fy          fz
    1 0  1.1894352600000000e+00 4.4569937999999998e-01 2.2485680999999999e-01  3.7932592999999998e-01 -5.8918325999999999e-01 -7.8778877999999997e-01
    2 0  1.2837239199999999e+00 3.1138670000000002e-01 2.5525233400000000e+00  -3.5756047000000002e-01 8.4842348000000001e-01 -4.3418701999999998e-01
    3 0  1.3469952199999999e+00 5.4410650000000005e-01 -2.2388606900000001e+00  2.4656446000000001e-01 -8.9475442000000005e-01 7.0807980999999998e-01
    4 0  -1.3272867500000001e+00 -4.0439520099999999e+00 1.0726521999999999e-01  2.3353335000000000e-01 3.0294543000000002e-01 9.4779980000000000e-02
    5 0  -1.0916281000000001e+00 -3.8214509600000000e+00 2.4726074499999999e+00  -1.6446468400000001e+00 -2.2393025999999999e-01 3.7920900000000001e-03
    6 0  -1.2181232099999999e+00 -3.9757399000000002e+00 -2.2607815599999999e+00  -3.0308550000000000e-02 1.0332011000000001e+00 -4.6417799999999999e-03
    7 0  -1.9567988000000000e-01 -1.7223082900000000e+00 -1.2280380000000000e-02  1.3703629000000001e-01 7.4738959999999993e-02 5.1196140000000001e-02
    8 0  -5.1577369999999997e-02 -1.7080123400000000e+00 2.3209775800000001e+00  1.6459204999999999e-01 4.7094219999999998e-01 5.9189161999999995e-01
    9 0  9.2444050000000000e-02 -1.6969125199999999e+00 -2.3361135200000001e+00  -1.7461450000000001e-01 -6.5198666000000005e-01 -5.7315579999999998e-02
    10 0  2.6183738600000002e+00 -1.7676675100000001e+00 1.2038880000000000e-01  -4.5255014999999998e-01 8.6835896999999995e-01 -2.7500944999999999e-01
    11 0  2.6117434199999998e+00 -1.6969189499999999e+00 2.5138694699999999e+00  2.0734764999999999e-01 -6.2124011999999995e-01 -7.4928008000000001e-01
    12 0  2.5283420099999998e+00 -1.7623721000000001e+00 -2.2988673300000002e+00  3.7782537999999999e-01 -2.0214090000000001e-02 9.7154335999999997e-01
    13 0  6.3269420000000007e-02 -6.1611310499999998e+00 5.8492950000000002e-02  -5.2782616000000004e-01 6.7510055000000002e-01 6.7997500000000000e-01
    14 0  -1.3830915999999999e-01 -6.0120714599999996e+00 2.4842269400000001e+00  6.1039286000000004e-01 -3.1983011000000000e-01 -5.3176851000000003e-01
    15 0  3.2301969999999999e-02 -6.0943165099999996e+00 -2.2572618599999998e+00  -3.8670660000000003e-02 -2.8832379000000002e-01 -1.4512396999999999e-01
    16 0  1.2693901900000000e+00 -3.7141345499999998e+00 1.6227775000000000e-01  -1.7085130000000001e-01 -7.9672785999999995e-01 -4.9838716999999999e-01
    17 0  1.2714194400000001e+00 -3.8288767799999999e+00 2.4630481799999999e+00  8.6494532999999996e-01 -2.5186272999999998e-01 8.3212229000000004e-01
    18 0  1.3659391200000000e+00 -4.0271249600000001e+00 -2.1648028799999999e+00  6.1359280000000002e-02 2.9285744000000002e-01 -6.9185954999999999e-01
    19 0  5.3178639999999999e-02 2.6388284500000001e+00 2.0348880000000000e-01  -3.6148855000000002e-01 -2.8870270999999997e-01 -7.0171289999999997e-01
    20 0  9.6498349999999997e-02 2.6371104800000000e+00 2.4511181600000000e+00  9.0699189999999999e-02 -1.1233446000000000e-01 1.6419098299999999e+00
    21 0  6.5174529999999994e-02 2.5122670100000000e+00 -2.1080991299999998e+00  -3.9501871999999999e-01 9.8220960999999996e-01 -1.2307898900000001e+00
    22 0  -2.7141937100000000e+00 -1.7574604800000000e+00 1.3231228000000000e-01  9.5708968000000005e-01 -3.0747910000000001e-01 -4.3082999999999999e-01
    23 0  -2.5856409999999999e+00 -1.6308679399999999e+00 2.4604248399999999e+00  -9.0418509999999994e-02 -3.1426380999999998e-01 2.8764647999999998e-01
    24 0  -2.6083834700000001e+00 -1.7274437300000001e+00 -2.2710460900000000e+00  5.7509770000000002e-02 -5.7582113000000001e-01 1.6144062000000001e-01
    25 0  -1.3612944600000001e+00 4.9373553999999997e-01 4.6003710000000003e-02  1.6084034000000000e-01 1.7276918999999999e-01 -1.5897963000000001e-01
    26 0  -1.3714279700000001e+00 5.3664562000000005e-01 2.3923721900000001e+00  9.2842759999999996e-02 6.4604389999999998e-02 3.1895085000000001e-01
    27 0  -1.1837983000000001e+00 3.2425378999999999e-01 -2.3534556900000001e+00  -3.9794991000000002e-01 4.7050319000000002e-01 3.5434624999999997e-01
 PlusStress:  xx          yy          zz          yz          xz          xy
     3.8417299999999997e+01 4.4892699999999998e+01 5.0190800000000003e+01 -3.9469199999999999e-01 1.7102400000000000e+00 -6.3237299999999996e-01
END_CFG

BEGIN_CFG
 Size
    8
 Supercell
    2.4229479999999999e+00 -4.3086539999999998e+00 -8.0881999999999996e-02
    2.5630690000000000e+00 4.3594189999999999e+00 6.9403000000000006e-02
    1.2876000000000000e-02 -3.5317000000000001e-02 4.5385739999999997e+00
 AtomData:  id type       cartes_x      cartes_y      cartes_z           fx          fy          fz
    1 0  2.6647190999999998e-01 -2.5806737800000001e+00 -1.1731308000000000e-01  4.8078619000000000e-01 -2.7513730000000000e-02 -1.7602839000000001e-01
    2 0  1.1731158999999999e-01 -2.1922845000000000e+00 2.1632197700000000e+00  -1.8367246000000001e-01 4.0708361999999998e-01 -3.1469056000000001e-01
    3 0  1.7092704900000000e+00 -4.5191003000000002e-01 -2.5000945000000002e-01  -8.8916653000000001e-01 3.4894923999999999e-01 -3.3978863999999998e-01
    4 0  1.3053547100000000e+00 2.3634952000000001e-01 1.9711329600000000e+00  -2.5305579000000000e-01 -7.2261335000000004e-01 6.1840163999999997e-01
    5 0  -8.7376081999999999e-01 -4.6343884000000002e-01 -3.8171206000000002e-01  5.0871297999999998e-01 6.3724274000000003e-01 6.8992412999999997e-01
    6 0  -1.1572353500000001e+00 -5.9413769999999998e-02 1.9300289200000000e+00  3.9000729000000001e-01 3.2429909999999999e-02 -1.5744426000000000e-01
    7 0  4.1527227999999999e-01 1.7422788899999999e+00 -1.0536305000000000e-01  -3.9230323000000000e-01 -4.8580420000000002e-01 -6.4203052000000005e-01
    8 0  2.6492990000000001e-02 2.3131463999999999e+00 2.1270743599999999e+00  3.3869156000000000e-01 -1.8977422999999999e-01 3.2165660000000001e-01
 Energy
    -1.3000538300000001e+03
 PlusStress:  xx          yy          zz          yz          xz          xy
     1.8699000000000002e+01 1.8132300000000001e+01 2.0811900000000001e+01 -2.3203199999999999e-01 -1.1351400000000000e-01 -5.3961099999999995e-01
END_CFG

BEGIN_CFG
 Size
    27
 Supercell
    3.7412269999999999e+00 -6.4469050000000001e+00 3.6200999999999997e-02
    3.6794519999999999e+00 6.4352530000000003e+00 1.1891000000000001e-02
    7.4163999999999994e-02 1.6441000000000001e-02 6.8986789999999996e+00
 AtomData:  id type       cartes_x      cartes_y      cartes_z           fx          fy          fz
    1 0  -4.2391741999999999e-01 -1.0822097399999999e+00 3.4691259000000002e-01  8.8536291000000000e-01 -2.9767650000000001e-01 2.2280432800000001e+00
    2 0  -3.0761675999999999e-01 -1.2316917300000001e+00 2.7780446599999999e+00  -2.7858471000000001e-01 -1.6654394000000000e-01 -7.3725635000000000e-01
    3 0  -3.8685936999999998e-01 -1.2421993000000000e+00 -1.8371505800000001e+00  -5.3443790999999996e-01 -8.6238620000000002e-02 -8.6857487000000000e-01
    4 0  9.0787446999999999e-01 9.5305587999999997e-01 6.5268369999999998e-01  -3.8070704000000000e-01 1.3318327999999999e-01 -5.1224519000000002e-01
    5 0  8.2172107999999999e-01 8.4442254999999999e-01 2.9230035100000000e+00  1.1764450999999999e-01 2.0609422999999999e-01 -4.5429360000000002e-02
    6 0  7.4365988999999999e-01 1.0293622600000001e+00 -1.6915051999999999e+00  1.5778391000000000e-01 -2.0211531999999999e-01 3.9046966999999999e-01
    7 0  -1.5465004200000001e+00 -3.3556555399999999e+00 3.9559694000000001e-01  -4.1715611000000002e-01 1.6227137000000000e-01 1.3846598900000000e+00
    8 0  -1.4866702899999999e+00 -3.3741933300000002e+00 2.7776325100000001e+00  -4.9926675999999998e-01 1.4719879000000000e-01 -6.1077413000000003e-01
    9 0  -1.4771462700000000e+00 -3.4574582399999998e+00 -1.8429644900000000e+00  -5.1600794999999999e-01 8.3782104000000002e-01 -2.2825324000000000e-01
    10 0  8.7169624000000001e-01 -3.3300577300000000e+00 6.4921695000000001e-01  -3.0650762999999998e-01 7.2048336000000002e-01 2.0312432899999999e+00
    11 0  8.7211105000000000e-01 -3.3831445100000002e+00 3.0460250900000001e+00  8.0412094999999995e-01 -3.5011873999999998e-01 -6.8518060000000003e-01
    12 0  9.3417419999999995e-01 -3.4398268999999999e+00 -1.5209645000000001e+00  1.7510397999999999e-01 1.1864312699999999e+00 -1.8059696300000001e+00
    13 0  2.2012693699999999e+00 -1.1979877999999999e+00 6.4560160000000000e-01  -5.6267464000000000e-01 4.4099119999999999e-02 -1.7080886000000001e-01
    14 0  2.1767601700000001e+00 -1.3196753999999999e+00 2.9278650000000002e+00  -4.9400709999999998e-01 -1.0698344999999999e-01 6.1241197999999997e-01
    15 0  1.9187231100000000e+00 -1.1078495100000001e+00 -1.6279414600000000e+00  1.1361176600000000e+00 -5.0848921999999996e-01 -4.5894264000000001e-01
    16 0  -3.5517296999999998e-01 -5.4847868399999999e+00 6.4574467000000002e-01  5.6609589999999999e-01 -1.8102064000000001e-01 1.0026165899999999e+00
    17 0  3.2060268900000000e+00 8.6428002999999998e-01 3.0007167400000001e+00  9.6440915999999999e-01 1.1124138000000000e-01 -2.8350850000000000e-01
    18 0  -3.8835881999999999e-01 -5.4975513999999999e+00 -1.5920665700000001e+00  4.8140450000000001e-02 -8.4680504000000001e-01 -9.2063265999999999e-01
    19 0  -1.6185839200000001e+00 1.0740938000000000e+00 4.4770228000000001e-01  9.1690439999999998e-02 -6.2884983000000005e-01 1.5874630900000000e+00
    20 0  -1.6642850400000000e+00 8.3652132999999995e-01 2.8136776299999999e+00  -2.0892274000000000e-01 5.0476186000000001e-01 -2.3440401999999999e-01
    21 0  -1.6622221500000001e+00 1.0543883300000001e+00 -1.7798509300000001e+00  6.1216824999999997e-01 -8.3153361999999997e-01 -9.7543864000000002e-01
    22 0  -4.2102404999999998e-01 3.1367862299999998e+00 7.0268565999999999e-01  5.0921512999999996e-01 -3.4133924999999998e-01 -5.0933735999999996e-01
    23 0  -2.2869961000000000e-01 3.0112673100000000e+00 2.9783864400000000e+00  -9.2345993000000004e-01 -4.0261696000000002e-01 8.4516850000000004e-02
    24 0  -2.3410465999999999e-01 3.2482080199999999e+00 -1.6300846800000000e+00  -8.6728459000000002e-01 -3.7301700000000000e-02 3.7766139999999997e-02
    25 0  -2.7410456200000000e+00 -1.2335734000000000e+00 6.5208878999999997e-01  -4.6669317999999999e-01 3.5427731000000001e-01 -1.9642000000000000e-02
    26 0  -2.8634382700000001e+00 -1.2892703700000001e+00 2.8973385399999998e+00  6.3299570000000005e-01 5.5159429000000004e-01 1.0673626599999999e+00
    27 0  -2.7973710100000000e+00 -1.1095646900000000e+00 -1.5967356800000001e+00  -2.4513867000000000e-01 2.8175539999999999e-02 -1.3601553799999999e+00
 Energy
    -4.3875978269999996e+03
 PlusStress:  xx          yy          zz          yz          xz          xy
     7.2005099999999999e+01 7.0510099999999994e+01 8.9597200000000001e+01 5.1036400000000004e-01 -2.1093500000000001e+00 5.7576400000000005e-01
END_CFG

BEGIN_CFG
 Size
    1
 Supercell
    2.7642880000000001e+00 0.0000000000000000e+00 0.0000000000000000e+00
    -1.4855680000000000e+00 2.2727010000000001e+00 0.0000000000000000e+00
    5.5502499999999999e-01 -2.4088200000000001e-01 2.3303099999999999e+00
 AtomData:  id type       cartes_x      cartes_y      cartes_z           fx          fy          fz
    1 0  0.0000000000000000e+00 0.0000000000000000e+00 0.0000000000000000e+00  0.0000000000000000e+00 0.0000000000000000e+00 0.0000000000000000e+00
 Energy
    -1.6266505900000001e+02
 PlusStress:  xx          yy          zz          yz          xz          xy
     -9.3755699999999997e-02 -7.3140200000000002e-02 1.2531699999999999e+00 1.3922200000000001e-01 -3.5897800000000002e-01 -3.5624500000000003e-02
END_CFG

BEGIN_CFG
 Size
    27
 Supercell
    3.8804310000000002e+00 -6.4724579999999996e+00 -2.8191999999999998e-02
    3.7375520000000000e+00 6.4601660000000001e+00 -1.4912999999999999e-02
    3.9463999999999999e-02 2.3555000000000000e-02 7.0039769999999999e+00
 AtomData:  id type       cartes_x      cartes_y      cartes_z           fx          fy          fz
    1 0  -1.4371781000000000e-01 -1.6093549400000000e+00 6.8906752000000004e-01  -7.2408357999999995e-01 5.7648750000000004e-01 6.4415977000000002e-01
    2 0  -2.6642695999999999e-01 -1.4589877600000001e+00 3.0384003700000002e+00  -5.8158377999999999e-01 2.1113982000000001e-01 -2.5057634000000001e-01
    3 0  -1.2371480999999999e-01 -1.5705207900000000e+00 -1.5915543800000000e+00  -3.0649683000000000e-01 9.2451738000000006e-01 -7.9778316000000005e-01
    4 0  8.6067026000000002e-01 6.3680435999999996e-01 6.0328081000000000e-01  8.2924951999999996e-01 2.3705490000000001e-01 9.8916279999999995e-02
    5 0  9.5688293000000002e-01 6.0400847999999996e-01 3.0094664000000000e+00  -4.0729657000000002e-01 5.3751369000000004e-01 -6.2801099999999999e-01
    6 0  9.1764086000000000e-01 1.0130929500000001e+00 -1.7334193200000001e+00  2.8900679000000001e-01 -8.8061407000000003e-01 4.0349357000000002e-01
    7 0  -1.6568513700000000e+00 -3.4726559699999999e+00 5.5228659000000002e-01  5.5612815000000004e-01 -6.0332576999999998e-01 5.6331282000000005e-01
    8 0  -1.6411099700000000e+00 -3.5517100199999998e+00 2.9513533000000001e+00  2.3300561000000000e-01 -1.6903910999999999e-01 -7.8424212999999998e-01
    9 0  -1.4508931000000000e+00 -3.4537012800000002e+00 -1.7715225000000001e+00  -7.7191434999999997e-01 -7.3573434000000004e-01 2.8375310999999998e-01
    10 0  1.0270165300000000e+00 -3.7072914300000002e+00 7.7513942999999996e-01  3.5916006000000000e-01 3.6290116000000000e-01 -8.8670579000000005e-01
    11 0  9.9936773999999995e-01 -3.5552367100000000e+00 3.0965148199999999e+00  -1.3822899999999999e-01 3.0166654999999998e-01 -5.6602087000000001e-01
    12 0  9.0297263999999999e-01 -3.8352914000000000e+00 -1.6446388900000000e+00  7.9141808000000002e-01 -3.3568610999999998e-01 7.2952790000000001e-01
    13 0  2.3049687400000001e+00 -1.4355836399999999e+00 5.2933933000000000e-01  -1.7467582000000001e-01 -2.6855505000000002e-01 1.3907951700000001e+00
    14 0  2.3108030899999998e+00 -1.4138156500000001e+00 2.9241466699999998e+00  -3.5932816000000001e-01 -4.2315482999999998e-01 -1.9420858999999999e-01
    15 0  2.1756439300000001e+00 -1.4528497499999999e+00 -1.6990812900000001e+00  1.0547640000000000e-01 -3.0708469999999999e-01 -1.1295501999999999e+00
    16 0  -2.8920718000000001e-01 -5.6705368800000002e+00 5.1766398999999996e-01  -4.2874045999999999e-01 2.3673699999999999e-02 -7.0765465000000005e-01
    17 0  -3.3742019000000001e-01 -5.6662703600000004e+00 2.7821813000000000e+00  2.4957721999999999e-01 2.6963520000000001e-02 9.5019390999999997e-01
    18 0  3.3388509300000000e+00 5.8001652999999997e-01 -1.8726908000000000e+00  5.8444998000000004e-01 5.5753856999999996e-01 2.4093445999999999e-01
    19 0  -1.5039506400000000e+00 7.1860078000000005e-01 7.0837844999999999e-01  -3.5054500999999999e-01 -3.9944560000000001e-01 -1.3878966500000001e+00
    20 0  -1.7131818599999999e+00 8.1047142999999999e-01 2.9122122899999998e+00  3.9106579000000002e-01 -8.0847884999999997e-01 1.8371902300000000e+00
    21 0  -1.4472717799999999e+00 4.2630056999999999e-01 -1.6416352999999999e+00  -6.9741470000000005e-01 8.3706029000000004e-01 -6.2345397000000002e-01
    22 0  -2.5498556999999999e-01 2.8864000700000001e+00 5.3603889999999998e-01  -8.3711701999999999e-01 3.2918210000000003e-02 -8.1102759999999996e-02
    23 0  -3.5731147000000002e-01 2.8555858900000000e+00 2.8588370900000002e+00  7.7876749999999995e-02 -1.2918542999999999e-01 1.6357599000000000e-01
    24 0  -5.4315097999999995e-01 2.8624347499999998e+00 -1.8155056199999999e+00  -1.1349575000000001e-01 2.6914305999999999e-01 4.0933876000000002e-01
    25 0  -2.9149845900000000e+00 -1.3023687500000001e+00 4.6344486000000001e-01  7.5505622999999999e-01 -3.1093260000000001e-02 1.3529082600000000e+00
    26 0  -2.9140898700000002e+00 -1.4052400199999999e+00 2.9660312900000001e+00  6.8444769000000005e-01 2.8227053000000002e-01 -1.5159005000000001e+00
    27 0  -2.8872370799999998e+00 -1.5014031600000000e+00 -1.8031406900000000e+00  -1.4997240000000000e-02 -8.9451749999999997e-02 4.8500640000000000e-01
 Energy
    -4.3903718190000000e+03
 PlusStress:  xx          yy          zz          yz          xz          xy
     5.7533499999999997e+01 5.7324500000000000e+01 6.7291600000000003e+01 2.0475000000000000e-02 -1.1013600000000000e-01 1.9344500000000000e+00
END_CFG

BEGIN_CFG
 Size
    8
 Supercell
    2.8501910000000001e+00 -4.4988510000000002e+00 -1.6650999999999999e-02
    2.5923010000000000e+00 4.4200179999999998e+00 2.7038000000000000e-02
    7.2839000000000001e-02 8.1639999999999994e-03 4.5790389999999999e+00
 AtomData:  id type       cartes_x      cartes_y      cartes_z           fx          fy          fz
    1 0  9.1189337000000004e-01 2.8137611100000002e+00 1.6046812300000000e+00  -7.4124179999999995e-01 -2.6709045999999997e-01 1.0003153400000000e+00
    2 0  2.0721196000000000e-01 2.8056901000000001e+00 -6.0289201999999997e-01  -6.1304500000000000e-03 -6.3670716999999999e-01 -5.4638624999999996e-01
    3 0  -1.0200132700000000e+00 7.7017413999999995e-01 1.7564550500000000e+00  2.8636716000000001e-01 -4.0171087000000000e-01 9.0952600000000008e-03
    4 0  -5.7031920000000003e-01 3.4139083999999997e-01 -5.3393179000000002e-01  -6.2407820000000003e-02 6.8343142000000001e-01 -1.5020449999999999e-01
    5 0  1.6722135499999999e+00 4.5497481000000001e-01 1.7718134600000000e+00  -8.9529899999999996e-02 1.1568866999999999e-01 -3.3032242000000001e-01
    6 0  2.0549545999999999e+00 4.2993318000000003e-01 -5.4351432000000000e-01  1.3937819000000001e-01 8.1321684000000005e-01 3.2951535999999998e-01
    7 0  6.6983391999999997e-01 -1.6912669199999999e+00 1.8344640100000000e+00  4.4603773000000002e-01 1.7465600000000001e-01 -3.5828892000000001e-01
    8 0  4.9973178000000001e-01 -1.7792447199999999e+00 -4.6987090999999997e-01  2.7526889999999998e-02 -4.8148443000000002e-01 4.6276150000000002e-02
 Energy
    -1.3017660100000001e+03
 PlusStress:  xx          yy          zz          yz          xz          xy
     6.5776500000000002e+00 1.0801500000000001e+01 1.6586900000000000e+01 -4.6737200000000001e-01 -3.5028199999999998e-01 4.8719600000000002e-01
END_CFG

BEGIN_CFG
 Size
    2
 Supercell
    3.5483470000000001e+00 0.0000000000000000e+00 0.0000000000000000e+00
    1.7496050000000001e+00 3.1005129999999999e+00 0.0000000000000000e+00
    2.2448329999999999e+00 1.0948850000000001e+00 2.9197460000000000e+00
 AtomData:  id type       cartes_x      cartes_y      cartes_z           fx          fy          fz
    1 0  0.0000000000000000e+00 0.0000000000000000e+00 0.0000000000000000e+00  2.8164000000000000e-01 -1.8515999999999999e-01 -5.1924000000000003e-01
    2 0  1.7977888099999999e+00 1.0379538300000000e+00 7.3394530999999996e-01  -2.8164000000000000e-01 1.8515999999999999e-01 5.1924000000000003e-01
 Energy
    -3.2550077499999998e+02
 PlusStress:  xx          yy          zz          yz          xz          xy
     6.6770817100000004e+00 6.6063560299999997e+00 5.9307624099999998e+00 3.9460032000000000e-01 -1.2649450000000000e+00 -4.5940340000000002e-01
END_CFG

BEGIN_CFG
 Size
    8
 Supercell
    2.5779179999999999e+00 -4.4698950000000002e+00 -3.2813000000000002e-02
    2.3058909999999999e+00 4.4685240000000004e+00 1.1237000000000000e-02
    -8.4840000000000002e-03 -1.0005000000000000e-02 4.9189090000000002e+00
 AtomData:  id type       cartes_x      cartes_y      cartes_z           fx          fy          fz
    1 0  -1.1648377999999999e+00 -2.6743629000000002e-01 5.8249960000000001e-01  -3.8854825999999998e-01 1.4723280000000000e-02 1.8429491000000001e-01
    2 0  -1.2602860499999999e+00 -2.0744729999999999e-02 -1.8180309299999999e+00  1.8042045000000001e-01 -5.6131903000000005e-01 -3.4005143999999998e-01
    3 0  -8.0528649999999993e-02 2.0680494899999999e+00 6.5913880999999996e-01  1.4189007000000001e-01 2.6739974999999999e-01 -4.2153882999999998e-01
    4 0  5.4315500000000003e-03 1.9995600499999999e+00 -1.8601985900000000e+00  -1.2929734000000001e-01 4.5845502999999999e-01 1.5789512999999999e-01
    5 0  1.3700370000000001e-01 -2.4518693900000001e+00 5.8239273999999996e-01  -1.6667530999999999e-01 8.3748770000000000e-02 -8.8093589999999999e-02
    6 0  5.6658989999999999e-02 -2.3134012700000000e+00 -1.8657334100000000e+00  2.0539740000000001e-01 1.9771179999999999e-01 -1.2011566999999999e-01
    7 0  1.1897045700000000e+00 -6.9366049999999999e-02 2.7840693999999999e-01  3.9500366999999997e-01 -2.3392900999999999e-01 2.7402844999999998e-01
    8 0  1.2795580799999999e+00 -1.9313988000000001e-01 -2.1952552000000001e+00  -2.3819069000000001e-01 -2.2679060000000001e-01 3.5358104000000001e-01
 Energy
    -1.3016389079999999e+03
 PlusStress:  xx          yy          zz          yz          xz          xy
     1.6911799999999999e+01 1.1771100000000001e+01 5.7028400000000001e+00 7.1921399999999996e-02 3.3779399999999998e-01 1.2182900000000001e+00
END_CFG

BEGIN_CFG
 Size
    1
 Supercell
    2.7159759999999999e+00 0.0000000000000000e+00 0.0000000000000000e+00
    -1.2944840000000000e+00 1.8825980000000000e+00 0.0000000000000000e+00
    -2.4307699999999999e-01 1.2063800000000000e-01 2.3864540000000001e+00
 AtomData:  id type       cartes_x      cartes_y      cartes_z           fx          fy          fz
    1 0  0.0000000000000000e+00 0.0000000000000000e+00 0.0000000000000000e+00  0.0000000000000000e+00 0.0000000000000000e+00 0.0000000000000000e+00
 Energy
    -1.6238556399999999e+02
 PlusStress:  xx          yy          zz          yz          xz          xy
     2.7296700000000000e+00 4.6233500000000003e+00 2.1087500000000001e+00 -1.4733099999999999e-01 1.7834400000000000e-01 -5.2297300000000002e-01
END_CFG

BEGIN_CFG
 Size
    1
 Supercell
    2.9212159999999998e+00 0.0000000000000000e+00 0.0000000000000000e+00
    -1.3336079999999999e+00 2.0089020000000000e+00 0.0000000000000000e+00
    -6.7236000000000004e-02 8.0746999999999999e-02 2.4523429999999999e+00
 AtomData:  id type       cartes_x      cartes_y      cartes_z           fx          fy          fz
    1 0  0.0000000000000000e+00 0.0000000000000000e+00 0.0000000000000000e+00  0.0000000000000000e+00 0.0000000000000000e+00 0.0000000000000000e+00
 Energy
    -1.6273843500000001e+02
 PlusStress:  xx          yy          zz          yz          xz          xy
     5.8790799999999999e-01 1.5758799999999999e+00 6.7544199999999999e-01 -2.3440800000000001e-01 1.3934199999999999e-01 -4.9802900000000000e-01
END_CFG

BEGIN_CFG
 Size
    8
 Supercell
    2.3981439999999998e+00 -4.2554959999999999e+00 -9.2329999999999995e-02
    2.6230920000000002e+00 4.2550309999999998e+00 1.0702900000000000e-01
    6.7139000000000004e-02 1.5695000000000001e-02 4.6182689999999997e+00
 AtomData:  id type       cartes_x      cartes_y      cartes_z           fx          fy          fz
    1 0  -8.2701314999999997e-01 1.2044979000000000e-01 4.1087580000000001e-01  -1.0049752100000000e+00 -4.5570876999999999e-01 7.0527329999999999e-01
    2 0  -1.4638107400000000e+00 -3.6709243000000003e-01 -1.7993247100000000e+00  6.9969108000000002e-01 2.0731394000000000e-01 -6.1073208999999995e-01
    3 0  4.2386181000000001e-01 2.1037772800000001e+00 6.9128811000000001e-01  5.7586989999999998e-02 3.2883248999999998e-01 -1.5408566500000000e+00
    4 0  -1.5977143999999999e-01 1.8772566100000001e+00 -1.7681231600000000e+00  2.1382063000000001e-01 -3.9188898999999999e-01 1.2386477700000000e+00
    5 0  1.6529525000000000e-01 -2.1059849499999999e+00 2.9030504000000001e-01  7.2654330000000003e-02 -3.9001720000000001e-01 -4.7238353999999999e-01
    6 0  -1.6847877999999999e-01 -2.4712074199999998e+00 -2.0863004900000002e+00  -1.1231985999999999e-01 3.1174083000000002e-01 9.2265834999999996e-01
    7 0  1.5922811699999999e+00 -1.1928252000000000e-01 4.3609179999999997e-01  5.1691047000000001e-01 2.5519312999999999e-01 1.6299846700000000e+00
    8 0  1.0812627299999999e+00 -2.3167178999999999e-01 -1.7103954299999999e+00  -4.4336842999999998e-01 1.3453456999999999e-01 -1.8725917900000000e+00
 Energy
    -1.2999898539999999e+03
 PlusStress:  xx          yy          zz          yz          xz          xy
     1.8353500000000000e+01 1.9350600000000000e+01 2.0886600000000001e+01 -8.4977700000000000e-01 -6.9513800000000001e-02 -6.3625299999999996e-01
END_CFG

BEGIN_CFG
 Size
    1
 Supercell
    2.8700260000000002e+00 0.0000000000000000e+00 0.0000000000000000e+00
    -1.0607439999999999e+00 2.5355859999999999e+00 0.0000000000000000e+00
    -2.5523000000000001e-02 -1.6939199999999999e-01 2.4732550000000000e+00
 AtomData:  id type       cartes_x      cartes_y      cartes_z           fx          fy          fz
    1 0  0.0000000000000000e+00 0.0000000000000000e+00 0.0000000000000000e+00  0.0000000000000000e+00 0.0000000000000000e+00 0.0000000000000000e+00
 Energy
    -1.6266646499999999e+02
 PlusStress:  xx          yy          zz          yz          xz          xy
     -1.5183500000000001e+00 -1.4203200000000000e+00 -3.0555700000000002e-01 4.3064599999999997e-01 -1.2803699999999999e-02 -2.5099400000000000e-03
END_CFG

BEGIN_CFG
 Size
    1
 Supercell
    2.4277289999999998e+00 0.0000000000000000e+00 0.0000000000000000e+00
    -1.3014859999999999e+00 2.2813750000000002e+00 0.0000000000000000e+00
    -4.9251200000000001e-01 2.4486000000000001e-02 2.2673589999999999e+00
 AtomData:  id type       cartes_x      cartes_y      cartes_z           fx          fy          fz
    1 0  0.0000000000000000e+00 0.0000000000000000e+00 0.0000000000000000e+00  0.0000000000000000e+00 0.0000000000000000e+00 0.0000000000000000e+00
 Energy
    -1.6250201100000001e+02
 PlusStress:  xx          yy          zz          yz          xz          xy
     2.2214200000000002e+00 1.1911700000000001e+00 3.0581000000000000e+00 2.8351899999999999e-02 8.0029900000000001e-02 8.9835899999999996e-02
END_CFG

BEGIN_CFG
 Size
    8
 Supercell
    2.5266639999999998e+00 -4.5919249999999998e+00 8.0186999999999994e-02
    2.8756870000000001e+00 4.7271190000000001e+00 -1.0767200000000000e-01
    -4.6940000000000003e-03 -5.6342999999999997e-02 4.8600209999999997e+00
 AtomData:  id type       cartes_x      cartes_y      cartes_z           fx          fy          fz
    1 0  9.5766132000000004e-01 -5.3532890000000000e-01 -8.8227473000000001e-01  -9.0842042999999995e-01 -6.9005616000000003e-01 7.6599521999999998e-01
    2 0  5.0978924999999997e-01 -2.5719448000000000e-01 1.6259911199999999e+00  3.4873669000000002e-01 -1.7969953000000000e-01 -2.0106419000000000e-01
    3 0  -9.3025780999999996e-01 -2.4726207599999999e+00 -6.4036877000000003e-01  6.4976160999999999e-01 3.4823069999999998e-02 5.7617631999999996e-01
    4 0  -6.0984245999999998e-01 -3.3201066899999998e+00 1.9649036700000000e+00  3.8935122000000000e-01 4.7074469000000002e-01 -6.2232200999999998e-01
    5 0  -3.7730269999999999e-01 1.5561732500000001e+00 -6.5839696000000003e-01  -6.2975139999999996e-01 -2.2932195999999999e-01 3.8913817000000001e-01
    6 0  -6.9834510000000005e-01 2.0385473400000000e+00 1.8500055300000000e+00  -1.7749131000000001e-01 2.3945952000000001e-01 -6.0459225000000005e-01
    7 0  -2.1990340399999999e+00 -3.4378589999999998e-01 -4.5408438000000001e-01  9.3374045999999999e-01 4.5710581000000000e-01 -3.2229274000000002e-01
    8 0  -1.7427287199999999e+00 -9.2082542000000001e-01 1.9240611400000001e+00  -6.0592683999999997e-01 -1.0305541999999999e-01 1.8961479999999999e-02
 Energy
    -1.3023027110000000e+03
 PlusStress:  xx          yy          zz          yz          xz          xy
     4.4134700000000002e+00 7.2058999999999995e-01 3.4116600000000002e-01 1.4394300000000000e+00 7.4529400000000001e-01 -5.7843999999999995e-01
END_CFG

BEGIN_CFG
 Size
    64
 Supercell
    5.3506349999999996e+00 -9.4240030000000008e+00 -1.1200000000000000e-04
    5.4265109999999996e+00 9.4624869999999994e+00 3.3739999999999998e-03
    2.7399999999999998e-03 2.1660000000000000e-03 9.6305390000000006e+00
 AtomData:  id type       cartes_x      cartes_y      cartes_z           fx          fy          fz
    1 0  -1.2270497000000000e-01 1.1428675000000001e-01 2.5745099999999999e-03  5.6606999999999996e-01 -1.2770999999999999e-01 1.0307800000000000e+00
    2 0  1.0473196999999999e-01 -6.1303429999999999e-02 2.4685101999999999e+00  5.5379000000000000e-01 -4.6699999999999998e-02 -3.1750000000000000e-01