BEGIN_CFG
 Size
    2
 Supercell
    2.0386739999999999e+00 -2.1588400000000001e+00 -1.2140620000000000e+00
    -2.2241409999999999e+00 2.2215980000000002e+00 -1.6688810000000001e+00
    2.1801580000000000e+00 2.1148570000000002e+00 1.5548700000000000e+00
 AtomData:  id type       cartes_x      cartes_y      cartes_z           fx          fy          fz
    1 0  1.1055462000000000e+00 -1.6128624999999999e-01 1.0803603200000000e+00  1.8119600000000000e+00 6.3065600000000002e+00 1.0155300000000000e+00
    2 0  -1.1055462000000000e+00 1.6128624999999999e-01 -1.0803603200000000e+00  -1.8119600000000000e+00 -6.3065600000000002e+00 -1.0155300000000000e+00
 Energy
    -3.2396227599999997e+02
END_CFG

BEGIN_CFG
 Size
    2
 Supercell
    2.2717260000000001e+00 -2.1352210000000000e+00 -1.3984190000000001e+00
    -2.3049290000000000e+00 2.1885430000000001e+00 -1.5573800000000000e+00
    2.2612209999999999e+00 2.0915140000000001e+00 1.4588939999999999e+00
 AtomData:  id type       cartes_x      cartes_y      cartes_z
    1 0  1.0898694200000001e+00 1.1508579999999999e-02 1.1667108100000001e+00
    2 0  -1.0898694200000001e+00 -1.1508579999999999e-02 -1.1667108100000001e+00
 Energy
    -3.2527721800000000e+02
 PlusStress:  xx          yy          zz          yz          xz          xy
     4.1835100000000001e+00 5.0252999999999997e+00 9.7014199999999995e-01 -3.4537200000000001e-01 -9.8119000000000001e-01 3.6935000000000001e-01
END_CFG

BEGIN_CFG
 Size
    2
 Supercell
    2.1299670000000002e+00 -2.2461829999999998e+00 -1.4081379999999999e+00
    -2.2054309999999999e+00 2.2109350000000001e+00 -1.4818530000000001e+00
    2.2504119999999999e+00 2.2911649999999999e+00 1.5472900000000001e+00
 AtomData:  id type       cartes_x      cartes_y      cartes_z           fx          fy          fz
    1 0  1.1544369999999999e+00 -4.1517739999999997e-02 7.9586630000000003e-01  1.2411000000000000e-01 2.5860300000000001e+00 2.2550000000000001e-01
    2 0  -1.1544369999999999e+00 4.1517739999999997e-02 -7.9586630000000003e-01  -1.2411000000000000e-01 -2.5860300000000001e+00 -2.2550000000000001e-01
 PlusStress:  xx          yy          zz          yz          xz          xy
     8.0252100000000004e-01 8.5519999999999996e+00 -4.1250700000000001e-01 -9.5580899999999996e-02 -2.9635299999999998e-01 -3.1725299999999998e-02
END_CFG

BEGIN_CFG
 Size
    2
 Supercell
    2.5858289999999999e+00 -2.0709230000000001e+00 -1.7828580000000001e+00
    -2.4786969999999999e+00 1.8458820000000000e+00 -1.1714199999999999e+00
    2.3918089999999999e+00 1.9840350000000000e+00 1.5854140000000001e+00
 AtomData:  id type       cartes_x      cartes_y      cartes_z           fx          fy          fz
    1 0  1.1313042099999999e+00 8.2704559999999996e-02 1.6113887700000000e+00  -2.0108000000000001e-01 4.6582699999999999e+00 -2.4926300000000001e+00
    2 0  -1.1313042099999999e+00 -8.2704559999999996e-02 -1.6113887700000000e+00  2.0108000000000001e-01 -4.6582699999999999e+00 2.4926300000000001e+00
 Energy
    -3.2443052299999999e+02
 PlusStress:  xx          yy          zz          yz          xz          xy
     1.5795699999999999e+00 1.1244899999999999e+01 3.6254900000000001e+00 -5.2728000000000002e+00 6.8251600000000001e-01 -7.8533699999999995e-01
END_CFG

BEGIN_CFG
 Size
    2
 Supercell
    2.4950700000000001e+00 -2.5937100000000002e+00 -1.1419809999999999e+00
    -2.4809190000000001e+00 2.6242660000000000e+00 -1.1725440000000000e+00
    2.5556310000000000e+00 2.6684230000000002e+00 1.1162680000000000e+00
 AtomData:  id type       cartes_x      cartes_y      cartes_z           fx          fy          fz
    1 0  1.2957130299999999e+00 9.7689300000000003e-03 6.2421499000000003e-01  -6.3990000000000005e-02 1.3350000000000001e-02 1.2999999999999999e-04
    2 0  -1.2957130299999999e+00 -9.7689300000000003e-03 -6.2421499000000003e-01  6.3990000000000005e-02 -1.3350000000000001e-02 -1.2999999999999999e-04
 Energy
    -3.2529953000000000e+02
 PlusStress:  xx          yy          zz          yz          xz          xy
     -4.0337299999999998e-01 -2.1140400000000001e+00 5.1176899999999996e+00 2.8100500000000000e-01 -1.2524000000000000e-02 -1.8726300000000001e-01
END_CFG

BEGIN_CFG
 Size
    2
 Supercell
    1.8549780000000000e+00 -2.0112429999999999e+00 -1.3484220000000000e+00
    -1.8492530000000000e+00 2.0672579999999998e+00 -1.4412010000000000e+00
    2.1205490000000000e+00 2.2825389999999999e+00 1.3382320000000001e+00
 AtomData:  id type       cartes_x      cartes_y      cartes_z           fx          fy          fz
    1 0  1.0199879599999999e+00 3.2497390000000001e-02 9.0406032000000003e-01  -8.1081999999999999e-01 9.0608000000000000e-01 -7.7703000000000000e-01
    2 0  -1.0199879599999999e+00 -3.2497390000000001e-02 -9.0406032000000003e-01  8.1081999999999999e-01 -9.0608000000000000e-01 7.7703000000000000e-01
 Energy
    -3.2435488900000001e+02
 PlusStress:  xx          yy          zz          yz          xz          xy
     9.3689999999999998e+00 1.0296700000000000e+01 4.3783300000000001e+00 5.9758000000000000e-01 8.4221500000000005e-01 -4.7255900000000001e-01
END_CFG

BEGIN_CFG
 Size
    2
 Supercell
    2.6963040000000000e+00 -2.4369410000000000e+00 -1.2694829999999999e+00
    -2.6944200000000000e+00 2.2993579999999998e+00 -1.0108150000000000e+00
    2.5114670000000001e+00 2.2539880000000001e+00 1.2652209999999999e+00
 AtomData:  id type       cartes_x      cartes_y      cartes_z           fx          fy          fz
    1 0  1.2196646499999999e+00 -5.7512330000000000e-02 1.2519971400000001e+00  -5.5100000000000003e-02 2.0821800000000001e+00 -6.0443999999999998e-01
    2 0  -1.2196646499999999e+00 5.7512330000000000e-02 -1.2519971400000001e+00  5.5100000000000003e-02 -2.0821800000000001e+00 6.0443999999999998e-01
 Energy
    -3.2484252600000002e+02
 PlusStress:  xx          yy          zz          yz          xz          xy
     2.3840700000000001e-01 5.3971000000000000e+00 8.0916399999999999e+00 -1.3136300000000001e+00 1.3319600000000001e-01 -1.7674500000000001e-01
END_CFG

BEGIN_CFG
 Size
    2
 Supercell
    2.8062719999999999e+00 -2.3916330000000001e+00 -1.1185410000000000e+00
    -2.9141720000000002e+00 2.3099020000000001e+00 -1.1668670000000001e+00
    2.7854160000000001e+00 2.2628770000000000e+00 1.3176440000000000e+00
 AtomData:  id type       cartes_x      cartes_y      cartes_z           fx          fy          fz
    1 0  1.4963875900000001e+00 -9.5893599999999999e-03 1.2903258200000001e+00  1.5154999999999999e-01 5.7011000000000001e-01 -1.0878000000000000e-01
    2 0  -1.4963875900000001e+00 9.5893599999999999e-03 -1.2903258200000001e+00  -1.5154999999999999e-01 -5.7011000000000001e-01 1.0878000000000000e-01
 Energy
    -3.2497858900000000e+02
 PlusStress:  xx          yy          zz          yz          xz          xy
     -2.0862500000000002e+00 2.8012400000000000e+00 6.6689699999999998e+00 -4.0195599999999998e-01 -8.8623300000000002e-02 1.9696500000000000e-01
END_CFG

BEGIN_CFG
 Size
    2
 Supercell
    2.2566920000000001e+00 -2.0318049999999999e+00 -1.3687959999999999e+00
    -2.1783679999999999e+00 2.1463290000000002e+00 -1.4364390000000000e+00
    2.0922060000000000e+00 1.9456430000000000e+00 1.2249420000000000e+00
 AtomData:  id type       cartes_x      cartes_y      cartes_z           fx          fy          fz
    1 0  1.0863660300000000e+00 -3.2750769999999998e-02 1.3181553699999999e+00  -2.0431200000000000e+00 -3.6769999999999997e-02 -2.1959000000000001e-01
    2 0  -1.0863660300000000e+00 3.2750769999999998e-02 -1.3181553699999999e+00  2.0431200000000000e+00 3.6769999999999997e-02 2.1959000000000001e-01
 Energy
    -3.2459090300000003e+02
 PlusStress:  xx          yy          zz          yz          xz          xy
     1.2871800000000000e+01 5.2884000000000002e+00 2.5929899999999999e+00 1.4885400000000000e+00 7.0253699999999997e-01 3.5570000000000002e-01
END_CFG

BEGIN_CFG
 Size
    2
 Supercell
    2.1235019999999998e+00 -1.9766589999999999e+00 -1.3489700000000000e+00
    -2.1533430000000000e+00 2.0034310000000000e+00 -1.4536830000000001e+00
    2.2473930000000002e+00 2.0707089999999999e+00 1.4045339999999999e+00
 AtomData:  id type       cartes_x      cartes_y      cartes_z           fx          fy          fz
    1 0  1.1824925500000001e+00 -8.7833900000000003e-03 1.1878254500000001e+00  -2.7716500000000002e+00 7.4761999999999995e-01 1.0067000000000000e-01
    2 0  -1.1824925500000001e+00 8.7833900000000003e-03 -1.1878254500000001e+00  2.7716500000000002e+00 -7.4761999999999995e-01 -1.0067000000000000e-01
 Energy
    -3.2454254500000002e+02
 PlusStress:  xx          yy          zz          yz          xz          xy
     1.0857600000000000e+01 8.1483299999999996e+00 3.2792800000000000e+00 9.0195000000000003e-01 1.0495099999999999e+00 -2.0806600000000000e-01
END_CFG

BEGIN_CFG
 Size
    2
 Supercell
    2.1024400000000001e+00 -2.0106250000000001e+00 -1.1747250000000000e+00
    -2.2209490000000001e+00 2.0932140000000001e+00 -1.5457259999999999e+00
    2.0630910000000000e+00 1.8527670000000001e+00 1.3933830000000000e+00
 AtomData:  id type       cartes_x      cartes_y      cartes_z           fx          fy          fz
    1 0  1.1292656999999999e+00 -5.7631839999999997e-02 1.2450433800000000e+00  -1.1448499999999999e+00 6.2372000000000005e-01 5.6660000000000002e-02
    2 0  -1.1292656999999999e+00 5.7631839999999997e-02 -1.2450433800000000e+00  1.1448499999999999e+00 -6.2372000000000005e-01 -5.6660000000000002e-02
 Energy
    -3.2364618300000001e+02
 PlusStress:  xx          yy          zz          yz          xz          xy
     1.7060700000000001e+01 1.0561100000000000e+01 5.5949000000000000e+00 8.6209000000000002e-01 3.7202000000000002e-01 -1.2322800000000000e-01
END_CFG

BEGIN_CFG
 Size
    2
 Supercell
    2.2325460000000001e+00 -2.6443810000000001e+00 -8.3465900000000004e-01
    -2.5232100000000002e+00 2.6694700000000000e+00 -1.4164850000000000e+00
    2.3808069999999999e+00 2.5019770000000001e+00 1.3704350000000001e+00
 AtomData:  id type       cartes_x      cartes_y      cartes_z           fx          fy          fz
    1 0  1.2612473200000001e+00 -7.2146710000000003e-02 7.6631897000000004e-01  -2.8114000000000000e-01 4.2049999999999997e-02 1.2814999999999999e-01
    2 0  -1.2612473200000001e+00 7.2146710000000003e-02 -7.6631897000000004e-01  2.8114000000000000e-01 -4.2049999999999997e-02 -1.2814999999999999e-01
 Energy
    -3.2484617700000001e+02
 PlusStress:  xx          yy          zz          yz          xz          xy
     5.7995000000000001e+00 5.6203199999999998e-01 8.6491100000000003e+00 4.0415600000000003e-02 -6.1455199999999999e-01 1.9159700000000002e-02
END_CFG

BEGIN_CFG
 Size
    2
 Supercell
    2.3700589999999999e+00 -2.3722590000000001e+00 -9.1801699999999997e-01
    -2.5519379999999998e+00 2.3985470000000002e+00 -1.3024150000000001e+00
    2.5090210000000002e+00 2.3293409999999999e+00 1.2540789999999999e+00
 AtomData:  id type       cartes_x      cartes_y      cartes_z           fx          fy          fz
    1 0  1.3563705800000001e+00 -6.1434360000000000e-02 1.0832568499999999e+00  -5.6750999999999996e-01 4.0154000000000001e-01 -5.4440000000000002e-02
    2 0  -1.3563705800000001e+00 6.1434360000000000e-02 -1.0832568499999999e+00  5.6750999999999996e-01 -4.0154000000000001e-01 5.4440000000000002e-02
 Energy
    -3.2478440000000001e+02
 PlusStress:  xx          yy          zz          yz          xz          xy
     3.1912500000000001e+00 2.5966700000000000e+00 9.8848000000000003e+00 1.2150600000000000e-01 -7.5789200000000001e-02 1.7219499999999999e-02
END_CFG

BEGIN_CFG
 Size
    2
 Supercell
    1.9869410000000001e+00 -2.0792060000000001e+00 -1.3244180000000001e+00
    -1.9151170000000000e+00 2.1746729999999999e+00 -1.3679260000000000e+00
    1.9515389999999999e+00 2.1156280000000001e+00 1.1919219999999999e+00
 AtomData:  id type       cartes_x      cartes_y      cartes_z           fx          fy          fz
    1 0  9.7658175999999997e-01 -6.8415119999999996e-02 9.0882499999999999e-01  -2.1871499999999999e+00 2.4424299999999999e+00 -1.1582800000000000e+00
    2 0  -9.7658175999999997e-01 6.8415119999999996e-02 -9.0882499999999999e-01  2.1871499999999999e+00 -2.4424299999999999e+00 1.1582800000000000e+00
 Energy
    -3.2365803199999999e+02
 PlusStress:  xx          yy          zz          yz          xz          xy
     1.5470900000000000e+01 1.2608400000000000e+01 5.4136300000000004e+00 1.8841600000000001e+00 2.2567100000000000e+00 4.2073500000000003e-01
END_CFG

BEGIN_CFG
 Size
    2
 Supercell
    2.3748390000000001e+00 -2.2899840000000000e+00 -1.0704100000000001e+00
    -2.4564590000000002e+00 2.2428960000000000e+00 -1.1335249999999999e+00
    2.5315979999999998e+00 2.3651230000000001e+00 1.2209620000000001e+00
 AtomData:  id type       cartes_x      cartes_y      cartes_z           fx          fy          fz
    1 0  1.2314275500000000e+00 -5.7382019999999999e-02 9.6464801000000000e-01  3.3588000000000001e-01 1.5401000000000000e+00 2.4700000000000000e-01
    2 0  -1.2314275500000000e+00 5.7382019999999999e-02 -9.6464801000000000e-01  -3.3588000000000001e-01 -1.5401000000000000e+00 -2.4700000000000000e-01
 Energy
    -3.2459164099999998e+02
 PlusStress:  xx          yy          zz          yz          xz          xy
     2.4712800000000001e+00 5.3186099999999996e+00 1.2123699999999999e+01 5.8511199999999997e-01 -3.7482100000000002e-01 -5.0421199999999999e-02
END_CFG

BEGIN_CFG
 Size
    2
 Supercell
    2.3410169999999999e+00 -2.4901529999999998e+00 -1.1601490000000001e+00
    -2.3940899999999998e+00 2.4027059999999998e+00 -1.0961710000000000e+00
    2.2707120000000001e+00 2.3667750000000001e+00 1.2579680000000000e+00
 AtomData:  id type       cartes_x      cartes_y      cartes_z           fx          fy          fz
    1 0  1.1014092400000000e+00 -1.2197600000000001e-03 8.2128469000000004e-01  1.5781200000000000e+00 -1.2637000000000001e-01 -2.8188000000000002e-01
    2 0  -1.1014092400000000e+00 1.2197600000000001e-03 -8.2128469000000004e-01  -1.5781200000000000e+00 1.2637000000000001e-01 2.8188000000000002e-01
 Energy
    -3.2475547299999999e+02
 PlusStress:  xx          yy          zz          yz          xz          xy
     5.6695399999999996e+00 3.3948600000000000e+00 9.9811899999999998e+00 -4.5174999999999998e-01 -1.0706100000000001e+00 2.0791999999999999e-01
END_CFG

BEGIN_CFG
 Size
    2
 Supercell
    2.6750870000000000e+00 -2.1942970000000002e+00 -9.6539200000000003e-01
    -2.5592100000000002e+00 2.4304410000000001e+00 -1.1881940000000000e+00
    2.4763850000000001e+00 2.1114720000000000e+00 7.5112800000000002e-01
 AtomData:  id type       cartes_x      cartes_y      cartes_z           fx          fy          fz
    1 0  1.2606823000000000e+00 -8.8397060000000000e-02 8.8326355000000001e-01  -5.2409999999999998e-02 -1.3077000000000000e-01 -1.7899999999999999e-02
    2 0  -1.2606823000000000e+00 8.8397060000000000e-02 -8.8326355000000001e-01  5.2409999999999998e-02 1.3077000000000000e-01 1.7899999999999999e-02
 Energy
    -3.2433161100000001e+02
 PlusStress:  xx          yy          zz          yz          xz          xy
     1.2254600000000000e+00 6.4424599999999996e+00 1.3225000000000000e+01 2.8335400000000000e-02 -4.7646400000000000e-01 -9.3047199999999997e-02
END_CFG

BEGIN_CFG
 Size
    2
 Supercell
    2.2058059999999999e+00 -2.0082399999999998e+00 -1.1753560000000001e+00
    -2.2444860000000002e+00 2.1304690000000002e+00 -1.4727859999999999e+00
    2.3230460000000002e+00 2.0867990000000001e+00 1.2470669999999999e+00
 AtomData:  id type       cartes_x      cartes_y      cartes_z           fx          fy          fz
    1 0  1.1734474699999999e+00 -9.6368289999999995e-02 9.9102802999999995e-01  1.6820000000000002e-02 4.9671399999999997e+00 1.3429100000000000e+00
    2 0  -1.1734474699999999e+00 9.6368289999999995e-02 -9.9102802999999995e-01  -1.6820000000000002e-02 -4.9671399999999997e+00 -1.3429100000000000e+00
 Energy
    -3.2443377800000002e+02
 PlusStress:  xx          yy          zz          yz          xz          xy
     3.9400200000000001e+00 1.4017799999999999e+01 3.2728999999999999e+00 3.4760800000000001e+00 -1.3971300000000000e-01 -2.2342500000000001e-01
END_CFG

BEGIN_CFG
 Size
    2
 Supercell
    2.1306500000000002e+00 -2.1775509999999998e+00 -1.5418430000000001e+00
    -2.0435059999999998e+00 2.0013200000000002e+00 -1.0538600000000000e+00
    2.2500610000000001e+00 2.3841060000000001e+00 1.3806190000000000e+00
 AtomData:  id type       cartes_x      cartes_y      cartes_z           fx          fy          fz
    1 0  1.0608299000000001e+00 -2.5191970000000001e-02 7.6354155999999995e-01  3.8370000000000001e-02 5.1986499999999998e+00 1.1032200000000001e+00
    2 0  -1.0608299000000001e+00 2.5191970000000001e-02 -7.6354155999999995e-01  -3.8370000000000001e-02 -5.1986499999999998e+00 -1.1032200000000001e+00
 Energy
    -3.2425527000000000e+02
 PlusStress:  xx          yy          zz          yz          xz          xy
     3.6255299999999999e+00 1.3410299999999999e+01 3.4592000000000001e+00 1.5236900000000000e+00 5.9695900000000002e-01 -2.8764200000000001e-01
END_CFG

BEGIN_CFG
 Size
    2
 Supercell
    2.2558189999999998e+00 -2.4441940000000000e+00 -8.8908100000000001e-01
    -2.4545059999999999e+00 2.4616359999999999e+00 -1.2885750000000000e+00
    2.3673590000000000e+00 2.3570470000000001e+00 1.2565660000000001e+00
 AtomData:  id type       cartes_x      cartes_y      cartes_z           fx          fy          fz
    1 0  1.2122930999999999e+00 -7.9890569999999994e-02 8.9803962999999998e-01  1.0778799999999999e+00 5.1722000000000001e-01 -1.8121999999999999e-01
    2 0  -1.2122930999999999e+00 7.9890569999999994e-02 -8.9803962999999998e-01  -1.0778799999999999e+00 -5.1722000000000001e-01 1.8121999999999999e-01
 Energy
    -3.2437579899999997e+02
 PlusStress:  xx          yy          zz          yz          xz          xy
     6.3380200000000002e+00 3.6322199999999998e+00 1.2863000000000000e+01 3.1125500000000000e-01 -2.1805700000000000e-01 -1.9531899999999999e-01
END_CFG

BEGIN_CFG
 Size
    64
 Supercell
    1.0727470400000000e+01 0.0000000000000000e+00 0.0000000000000000e+00
    0.0000000000000000e+00 1.0727470400000000e+01 0.0000000000000000e+00
    0.0000000000000000e+00 0.0000000000000000e+00 1.0727470400000000e+01
 AtomData:  id type       cartes_x      cartes_y      cartes_z           fx          fy          fz
    1 0  3.2855688700000002e+01 2.7949115379999999e+01 -7.8392706299999997e+00  -1.2493600000000000e+00 1.0843000000000000e+00 -1.2834999999999999e-01
    2 0  2.8993080610000000e+01 2.4187442099999998e+00 1.2693450990000001e+01  -5.5176000000000003e-01 -2.0549999999999999e-02 1.3023000000000001e-01
    3 0  7.0280378700000004e+00 -8.6391751899999996e+00 7.8853451200000002e+00  -1.6664000000000001e-01 -3.4033000000000002e-01 4.6122999999999997e-01
    4 0  3.0993743110000000e+01 4.8994502799999999e+00 4.2269880720000003e+01  -5.2442999999999995e-01 3.0710999999999999e-01 6.1121999999999999e-01
    5 0  2.1427221020000001e+01 8.4610455499999997e+00 -4.4869683199999999e+00  2.6679999999999998e-01 6.3283000000000000e-01 -3.2650000000000001e-01
    6 0  2.3732082399999999e+01 1.5090514980000000e+01 4.9361381999999998e-01  3.8267000000000001e-01 -1.4740000000000000e-01 -1.6468400000000001e+00
    7 0  2.0575288000000000e-01 -6.0948552200000004e+00 1.4838237100000000e+00  -1.1213500000000001e+00 3.1803999999999999e-01 -1.2272799999999999e+00
    8 0  1.7674784050000000e+01 6.2124926599999997e+00 8.6076471600000009e+00  -7.2850999999999999e-01 -3.2380999999999999e-01 -1.1185000000000000e-01
    9 0  2.6633080029999999e+01 9.8509073399999991e+00 6.2036961000000002e-01  4.6321000000000001e-01 -7.4256000000000000e-01 -1.2438899999999999e+00
    10 0  2.7904939649999999e+01 5.3514522500000004e+00 6.2467132899999998e+00  -3.5603000000000001e-01 5.0566000000000000e-01 -1.2654000000000001e-01
    11 0  1.8282463069999999e+01 -1.2560237259999999e+01 5.9286652499999999e+00  3.1350000000000003e-02 1.5719000000000000e-01 -4.1898000000000002e-01
    12 0  1.1394558150000000e+01 1.2927245480000000e+01 1.6568942770000000e+01  -5.5449000000000004e-01 -3.7813000000000002e-01 -8.9483999999999997e-01
    13 0  7.7366516499999998e+00 2.0198528740000000e+01 -2.3665228800000002e+00  1.8628300000000000e+00 8.9800000000000005e-02 7.9847999999999997e-01
    14 0  2.8373515560000001e+01 2.5439198399999999e+01 1.4763005310000000e+01  -4.2176000000000002e-01 6.4905000000000002e-01 -1.4360599999999999e+00
    15 0  7.9010501399999997e+00 -3.8571156200000001e+00 -9.4175389900000006e+00  8.3270000000000000e-01 -1.7367100000000000e+00 2.1906000000000000e-01
    16 0  2.3943789030000001e+01 -1.2643954440000000e+01 2.1891484479999999e+01  6.4847999999999995e-01 7.3531999999999997e-01 -3.1492999999999999e-01
    17 0  1.4391212639999999e+01 3.2772582980000003e+01 -3.7332240600000000e+00  -1.9864999999999999e-01 -2.8460000000000002e-01 5.1859000000000000e-01
    18 0  -6.8817795000000004e-01 2.5489488779999999e+01 3.7229653839999997e+01  8.2559999999999995e-02 6.8184000000000000e-01 7.0980000000000001e-02
    19 0  3.7577095149999998e+01 2.0666042600000001e+00 3.5357527900000001e+00  1.8849999999999999e-02 -3.8020999999999999e-01 -1.0030000000000000e-01
    20 0  1.8251825409999999e+01 -4.1896993800000004e+00 1.5150406450000000e+01  -5.7406000000000001e-01 -1.8350000000000002e-02 3.7615999999999999e-01
    21 0  1.3406752680000000e+01 1.2072062270000000e+01 -9.8604976999999998e+00  -1.7422800000000001e+00 7.2218000000000004e-01 -7.4578000000000000e-01
    22 0  1.1746762450000000e+01 -1.1347410899999999e+00 -1.7152785340000001e+01  -3.7570999999999999e-01 5.9426000000000001e-01 -3.5500000000000002e-03
    23 0  3.2822197529999997e+01 2.2025996230000001e+01 7.6244208599999999e+00  -9.6733999999999998e-01 4.1210000000000002e-01 -4.4577000000000000e-01
    24 0  1.9641515569999999e+01 -2.0792476590000000e+01 -3.5772573699999999e+00  1.0451200000000000e+00 -7.6848000000000005e-01 2.5780599999999998e+00
    25 0  2.2495140689999999e+01 1.4252924820000000e+01 -7.4452184600000004e+00  -2.5858999999999999e-01 -1.0384199999999999e+00 7.9649000000000003e-01
    26 0  5.4365672150000002e+01 -1.2274918730000000e+01 -8.8296843400000000e+00  -4.8903999999999997e-01 3.0198999999999998e-01 -2.0280000000000001e-01
    27 0  1.2613981890000000e+01 3.1677436990000000e+01 9.1986556799999999e+00  1.3633999999999999e+00 6.2128000000000005e-01 8.1437000000000004e-01
    28 0  6.5130871099999998e+00 -6.0108805800000003e+00 3.3619731320000000e+01  -2.0580000000000001e-02 3.1528000000000000e-01 -6.1050000000000000e-02
    29 0  1.0323173499999999e+01 9.7763728999999999e-01 1.1219206920000000e+01  7.3450000000000004e-01 -3.8400000000000001e-03 5.0060000000000004e-01
    30 0  2.1811500460000001e+01 3.0022735399999998e+01 1.9379153819999999e+01  -1.3273299999999999e+00 -7.7820000000000000e-01 -1.1570000000000000e-02
    31 0  3.2960292260000003e+01 2.6890442780000001e+01 -2.0301094100000001e+00  -1.5232000000000001e-01 7.8432999999999997e-01 7.6027000000000000e-01
    32 0  3.0718551320000000e+01 1.9208962499999998e+01 -8.5164529299999998e+00  -5.3359999999999998e-02 1.6147000000000000e-01 5.1370000000000005e-01
    33 0  2.4944844379999999e+01 2.5550045350000001e+01 2.3783552800000001e+00  5.9931000000000001e-01 -1.8082000000000001e-01 6.7110000000000003e-02
    34 0  2.6455819309999999e+01 1.5394359850000001e+01 9.5322370999999997e+00  4.7826000000000002e-01 -1.0201000000000000e-01 4.3208000000000002e-01
    35 0  1.0367241899999999e+00 3.2483960399999998e+00 -1.3646222000000000e+01  3.8951999999999998e-01 -2.9163000000000000e-01 1.1369199999999999e+00
    36 0  7.4066317499999998e+00 3.6476188500000002e+00 2.0601570530000000e+01  -2.3105000000000001e-01 4.4716000000000000e-01 -5.6250000000000001e-02
    37 0  4.9238874600000004e+00 7.8319652299999998e+00 2.9982754119999999e+01  6.4790999999999999e-01 9.4500000000000001e-03 1.4480999999999999e-01
    38 0  1.7805133500000001e+00 2.6694945359999998e+01 -1.4851635670000000e+01  1.2978999999999999e-01 2.4374999999999999e-01 -7.2175999999999996e-01
    39 0  9.6234313300000007e+00 2.0168202180000002e+01 1.0676128730000000e+01  -9.8070000000000004e-02 8.3019999999999997e-02 -4.7450999999999999e-01
    40 0  2.6161157159999998e+01 -1.2373010720000000e+01 2.5896907379999998e+01  -1.6192000000000001e-01 -4.7105999999999998e-01 -4.0216000000000002e-01
    41 0  1.9276674300000000e+01 1.0747981319999999e+01 3.0140651799999998e+00  4.0517999999999998e-01 1.6919999999999999e-01 -8.5853999999999997e-01
    42 0  6.1402967799999999e+00 1.6805762399999999e+00 -3.1957130000000000e-02  -1.5772000000000000e-01 -1.8570999999999999e-01 -2.7632000000000001e-01
    43 0  1.8239070450000000e+01 -2.6330576000000000e-01 2.2119250130000001e+01  4.6854000000000001e-01 2.6273000000000002e-01 2.0843999999999999e-01
    44 0  2.7173733819999999e+01 -6.2116344999999995e-01 -3.0432438999999998e+00  -1.6814700000000000e+00 9.0969999999999995e-02 -6.6989999999999994e-02
    45 0  2.9317103860000000e+01 -7.4707283899999997e+00 1.6676120919999999e+01  4.8135000000000000e-01 -1.1597000000000000e-01 4.5005000000000001e-01
    46 0  4.5489409099999998e+00 -4.1634063499999998e+00 -5.8064578999999998e+00  1.6855999999999999e-01 -8.7919999999999998e-02 3.8658999999999999e-01
    47 0  4.5512323010000003e+01 1.9257418489999999e+01 2.7072133940000001e+01  7.9508000000000001e-01 -5.2588000000000001e-01 9.2391999999999996e-01
    48 0  3.4547035319999999e+01 2.7116459849999998e+01 -1.7312807020000001e+01  1.1170800000000001e+00 -1.5456000000000000e-01 1.2822899999999999e+00
    49 0  6.0371306999999996e+00 -2.4458385780000000e+01 -7.7436245100000001e+00  2.9415999999999998e-01 1.6256999999999999e-01 1.3854000000000000e-01
    50 0  1.3564703950000000e+01 -2.3658620679999999e+01 -7.8178693299999997e+00  6.2614000000000003e-01 -2.8511999999999998e-01 4.3429000000000001e-01
    51 0  3.5178486400000000e+00 1.4063563510000000e+01 -1.6904959320000000e+01  6.4269999999999994e-02 -3.9167000000000002e-01 4.8321999999999998e-01
    52 0  1.4368277310000000e+01 1.2548544320000000e+01 -1.2222879799999999e+00  5.8553999999999995e-01 3.9990999999999999e-01 -6.4446999999999999e-01
    53 0  1.0938093550000000e+01 1.1563977090000000e+01 2.4630497320000000e+01  -3.6015000000000003e-01 4.0504000000000001e-01 -8.8566999999999996e-01
    54 0  -2.6845172900000001e+00 1.1478736610000000e+01 -5.5841203500000001e+00  -1.0616500000000000e+00 -2.6499999999999999e-02 -1.0840700000000001e+00
    55 0  3.4686320790000003e+01 1.8328011910000001e+01 -2.4251914200000000e+00  -1.0000000000000001e-05 -6.9628000000000001e-01 -7.3321000000000003e-01
    56 0  1.9508913300000000e+01 7.4204701899999996e+00 -3.1874210999999999e+00  -1.1207000000000000e-01 -1.9847000000000001e-01 4.2191000000000001e-01
    57 0  3.5452144200000002e+00 6.8141428399999997e+00 -1.0983170380000001e+01  3.2414999999999999e-01 -1.1792700000000000e+00 1.5551999999999999e-01
    58 0  -6.5468357299999997e+00 -2.1140207550000000e+01 3.4378989490000002e+01  7.8100000000000001e-03 2.7363999999999999e-01 2.1842199999999998e+00
    59 0  1.3080948680000001e+01 -9.5928580399999994e+00 -1.6782902159999999e+01  6.2573999999999996e-01 -3.2948000000000000e-01 -2.0080000000000001e-01
    60 0  3.0690520440000000e+01 -7.3845331600000002e+00 -2.6672460600000001e+00  2.8139999999999998e-01 -3.0249999999999999e-02 4.4280000000000000e-02
    61 0  5.6820836100000003e+00 2.1680571680000000e+01 -5.3814140699999999e+00  2.9347000000000001e-01 9.5035000000000003e-01 7.0000000000000007e-02
    62 0  6.1512173499999996e+00 7.6813408200000000e+00 2.2261647000000001e-01  -1.7740000000000000e+00 7.0511999999999997e-01 -1.1979800000000000e+00
    63 0  1.5257992249999999e+01 1.6934384770000001e+01 1.2751540240000001e+01  -8.3930000000000005e-02 9.0759999999999993e-02 -3.3404000000000000e-01
    64 0  3.1212422600000000e+01 -3.9723071999999999e+00 -1.6480526959999999e+01  1.0399400000000001e+00 -1.1534899999999999e+00 -7.2996000000000005e-01
 Energy
    -1.0399151985000000e+04
 PlusStress:  xx          yy          zz          yz          xz          xy
     -1.1573502039999999e+01 -2.3751141279999999e+01 -4.1292878999999996e+00 -4.9762110699999997e+00 3.7575425800000000e+00 -6.0576681199999998e+00
END_CFG

BEGIN_CFG
 Size
    64
 Supercell
    1.0683568899999999e+01 0.0000000000000000e+00 0.0000000000000000e+00
    0.0000000000000000e+00 1.0683568899999999e+01 0.0000000000000000e+00
    0.0000000000000000e+00 0.0000000000000000e+00 1.0683568899999999e+01
 AtomData:  id type       cartes_x      cartes_y      cartes_z           fx          fy          fz
    1 0  3.2579895919999998e+01 2.8246821990000001e+01 -7.3515774299999999e+00  2.7161000000000002e-01 -4.0983000000000003e-01 6.2170000000000003e-02
    2 0  2.9204069770000000e+01 2.3444878299999998e+00 1.2602316510000000e+01  -4.9495000000000000e-01 -1.7754000000000000e-01 1.4800000000000000e-03
    3 0  6.3467984599999996e+00 -8.9715804000000006e+00 8.0134138400000001e+00  2.1626999999999999e-01 -1.4421999999999999e-01 2.8100999999999998e-01
    4 0  3.0625144679999998e+01 5.1168632699999996e+00 4.2214146049999997e+01  1.0984700000000001e+00 -2.3369999999999999e-01 -9.4738999999999995e-01
    5 0  2.1264554170000000e+01 8.4074879599999992e+00 -4.5953234900000002e+00  -6.6766999999999999e-01 -2.8338000000000002e-01 6.8237000000000003e-01
    6 0  2.3872092830000000e+01 1.4812490510000000e+01 2.7518736999999999e-01  -1.2322200000000001e+00 -2.3709000000000000e-01 -5.0959999999999998e-02
    7 0  4.4418005999999999e-01 -5.8127695800000003e+00 1.8484710900000001e+00  1.6345000000000001e-01 4.0305000000000002e-01 -1.1513899999999999e+00
    8 0  1.7130215990000000e+01 6.5999669900000004e+00 8.3482262100000000e+00  4.2330000000000001e-01 4.6904000000000001e-01 1.8092000000000000e-01