BEGIN_CFG
 Size
    128
 Supercell
        12.849760     -0.131120      0.000000
        -0.131120     13.112000      0.000000
         0.000000      0.000000     13.112000
 AtomData:  id type       cartes_x      cartes_y      cartes_z           fx          fy          fz
             1    0       6.359320      6.490440      6.556000     0.000084    0.000783    0.001484
             2    0       0.000000      0.000000      0.000000    -0.000338   -0.000639    0.000875
             3    0       0.000000      0.000000      3.278000    -0.000002   -0.000210    0.000917
             4    0       0.000000      0.000000      6.556000    -0.000536   -0.000407   -0.000783
             5    0       0.000000      0.000000      9.834000    -0.000453   -0.000771   -0.000713
             6    0      -0.032780      3.278000      0.000000    -0.000834    0.000440    0.000323
             7    0      -0.032780      3.278000      3.278000    -0.001422   -0.001007   -0.000007
             8    0      -0.032780      3.278000      6.556000    -0.002366   -0.000769   -0.000014
             9    0      -0.032780      3.278000      9.834000    -0.001902    0.000602   -0.000340
            10    0      -0.065560      6.556000      0.000000    -0.000077    0.000202   -0.000375
            11    0      -0.065560      6.556000      3.278000    -0.000187    0.000123   -0.000397
            12    0      -0.065560      6.556000      6.556000    -0.000254    0.000397    0.001294
            13    0      -0.065560      6.556000      9.834000    -0.000066    0.000463   -0.000481
            14    0      -0.098340      9.834000      0.000000     0.000628    0.000039    0.000028
            15    0      -0.098340      9.834000      3.278000     0.001066    0.001164   -0.000228
            16    0      -0.098340      9.834000      6.556000     0.001920    0.000740    0.000503
            17    0      -0.098340      9.834000      9.834000     0.001442   -0.000217   -0.000263
            18    0       3.212440     -0.032780      0.000000     0.000158   -0.001161    0.000557
            19    0       3.212440     -0.032780      3.278000    -0.000698   -0.001565    0.000258
            20    0       3.212440     -0.032780      6.556000    -0.000398   -0.002981   -0.000470
            21    0       3.212440     -0.032780      9.834000    -0.000127   -0.002451   -0.000298
            22    0       3.179660      3.245220      0.000000    -0.000432   -0.000189    0.000160
            23    0       3.179660      3.245220      3.278000    -0.000612   -0.000992   -0.000533
            24    0       3.179660      3.245220      6.556000    -0.000170   -0.000003    0.000171
            25    0       3.179660      3.245220      9.834000     0.000216    0.000859    0.000236
            26    0       3.146880      6.523220      0.000000     0.000378    0.002074   -0.000676
            27    0       3.146880      6.523220      3.278000     0.000294    0.002231   -0.000478
            28    0       3.146880      6.523220      6.556000     0.000525    0.002908    0.001491
            29    0       3.146880      6.523220      9.834000     0.000643    0.002617   -0.000260
            30    0       3.114100      9.801220      0.000000     0.000373   -0.000685   -0.000314
            31    0       3.114100      9.801220      3.278000     0.000488    0.000266    0.000611
            32    0       3.114100      9.801220      6.556000     0.000262    0.000168    0.000954
            33    0       3.114100      9.801220      9.834000     0.000652   -0.000972   -0.001198
            34    0       6.424880     -0.065560      0.000000     0.000301   -0.000561    0.000493
            35    0       6.424880     -0.065560      3.278000     0.000159   -0.000574    0.000101
            36    0       6.424880     -0.065560      6.556000     0.000312   -0.000799    0.000116
            37    0       6.424880     -0.065560      9.834000     0.000264   -0.000933   -0.000678
            38    0       6.392100      3.212440      0.000000     0.001251    0.000040   -0.000171
            39    0       6.392100      3.212440      3.278000     0.001681   -0.000558   -0.000140
            40    0       6.392100      3.212440      6.556000     0.002303    0.000100    0.000676
            41    0       6.392100      3.212440      9.834000     0.001916    0.001085   -0.000350
            42    0       6.359320      6.490440      0.000000    -0.000190    0.001107   -0.000961
            43    0       6.359320      6.490440      3.278000    -0.000084    0.001025   -0.000081
            44    0       6.359320      6.490440      9.834000    -0.000044    0.000983   -0.000358
            45    0       6.326540      9.768440      0.000000    -0.001184   -0.000618   -0.000336
            46    0       6.326540      9.768440      3.278000    -0.001499    0.000061   -0.000137
            47    0       6.326540      9.768440      6.556000    -0.002170   -0.000039    0.000811
            48    0       6.326540      9.768440      9.834000    -0.001809   -0.001141   -0.000318
            49    0       9.637320     -0.098340      0.000000    -0.000362   -0.000087    0.000511
            50    0       9.637320     -0.098340      3.278000     0.000445    0.000813    0.000262
            51    0       9.637320     -0.098340      6.556000     0.000470    0.001534    0.000006
            52    0       9.637320     -0.098340      9.834000     0.000155    0.000805   -0.000664
            53    0       9.604540      3.179660      0.000000    -0.000052    0.000433   -0.000087
            54    0       9.604540      3.179660      3.278000     0.000237   -0.000503    0.000640
            55    0       9.604540      3.179660      6.556000     0.000259   -0.000340    0.000592
            56    0       9.604540      3.179660      9.834000    -0.000229    0.000793   -0.001182
            57    0       9.571760      6.457660      0.000000    -0.000041   -0.000744   -0.000740
            58    0       9.571760      6.457660      3.278000     0.000001   -0.001092   -0.000142
            59    0       9.571760      6.457660      6.556000    -0.000254   -0.001481    0.001331
            60    0       9.571760      6.457660      9.834000    -0.000461   -0.001212   -0.000416
            61    0       9.538980      9.735660      0.000000     0.000119    0.000425   -0.000047
            62    0       9.538980      9.735660      3.278000     0.000056    0.000803   -0.000481
            63    0       9.538980      9.735660      6.556000    -0.000022    0.000282    0.000595
            64    0       9.538980      9.735660      9.834000    -0.000369   -0.000381    0.000032
            65    0       1.589830      1.622610      1.639000    -0.000684   -0.001575    0.000204
            66    0       1.589830      1.622610      4.917000    -0.001619   -0.002544    0.000005
            67    0       1.589830      1.622610      8.195000    -0.001170   -0.001552   -0.000877
            68    0       1.589830      1.622610     11.473000    -0.000191   -0.001036    0.000623
            69    0       1.557050      4.900610      1.639000    -0.000651    0.001038   -0.000652
            70    0       1.557050      4.900610      4.917000    -0.000907    0.000814    0.000156
            71    0       1.557050      4.900610      8.195000    -0.000475    0.002118    0.000767
            72    0       1.557050      4.900610     11.473000    -0.000147    0.002103   -0.000311
            73    0       1.524270      8.178610      1.639000     0.000752    0.000336   -0.000663
            74    0       1.524270      8.178610      4.917000     0.001212    0.001537    0.000992
            75    0       1.524270      8.178610      8.195000     0.001642    0.000790    0.000593
            76    0       1.524270      8.178610     11.473000     0.001298    0.000009   -0.000959
            77    0       1.491490     11.456610      1.639000     0.000041    0.000229    0.000150
            78    0       1.491490     11.456610      4.917000     0.000598    0.000148    0.000948
            79    0       1.491490     11.456610      8.195000     0.001245   -0.001296   -0.001159
            80    0       1.491490     11.456610     11.473000     0.000655   -0.001021   -0.000039
            81    0       4.802270      1.589830      1.639000     0.000810   -0.001547   -0.000104
            82    0       4.802270      1.589830      4.917000     0.000729   -0.002031   -0.000210
            83    0       4.802270      1.589830      8.195000     0.001054   -0.001485   -0.000126
            84    0       4.802270      1.589830     11.473000     0.000864   -0.000739    0.000411
            85    0       4.769490      4.867830      1.639000     0.000531    0.001078   -0.000876
            86    0       4.769490      4.867830      4.917000     0.000855    0.001196    0.000326
            87    0       4.769490      4.867830      8.195000     0.000942    0.002199    0.001166
            88    0       4.769490      4.867830     11.473000     0.000625    0.002029   -0.000604
            89    0       4.736710      8.145830      1.639000    -0.000323    0.000879   -0.000716
            90    0       4.736710      8.145830      4.917000    -0.000837    0.001429    0.000714
            91    0       4.736710      8.145830      8.195000    -0.001268    0.000916    0.001020
            92    0       4.736710      8.145830     11.473000    -0.000543    0.000140   -0.001023
            93    0       4.703930     11.423830      1.639000     0.000152   -0.000460    0.000152
            94    0       4.703930     11.423830      4.917000    -0.000982   -0.000613    0.000577
            95    0       4.703930     11.423830      8.195000    -0.001133   -0.001693   -0.000363
            96    0       4.703930     11.423830     11.473000    -0.000240   -0.001469   -0.000389
            97    0       8.014710      1.557050      1.639000     0.000279   -0.000388    0.000106
            98    0       8.014710      1.557050      4.917000     0.001447   -0.000380    0.000507
            99    0       8.014710      1.557050      8.195000     0.001571    0.000461   -0.000514
           100    0       8.014710      1.557050     11.473000     0.000524    0.000184   -0.000016
           101    0       7.981930      4.835050      1.639000     0.000813   -0.000251   -0.000460
           102    0       7.981930      4.835050      4.917000     0.001216   -0.000723    0.000676
           103    0       7.981930      4.835050      8.195000     0.001190   -0.000011    0.000733
           104    0       7.981930      4.835050     11.473000     0.000723    0.000509   -0.000925
           105    0       7.949150      8.113050      1.639000    -0.000742   -0.000045   -0.000802
           106    0       7.949150      8.113050      4.917000    -0.000720   -0.000317    0.000227
           107    0       7.949150      8.113050      8.195000    -0.000871   -0.001224    0.001125
           108    0       7.949150      8.113050     11.473000    -0.000938   -0.000844   -0.000516
           109    0       7.916370     11.391050      1.639000    -0.000601    0.000734   -0.000205
           110    0       7.916370     11.391050      4.917000    -0.000461    0.001433    0.000052
           111    0       7.916370     11.391050      8.195000    -0.000664    0.000764   -0.000188
           112    0       7.916370     11.391050     11.473000    -0.000587    0.000068    0.000353
           113    0      11.227150      1.524270      1.639000    -0.000498   -0.000808    0.000513
           114    0      11.227150      1.524270      4.917000    -0.000741   -0.000617    0.000988
           115    0      11.227150      1.524270      8.195000    -0.001477    0.000038   -0.001457
           116    0      11.227150      1.524270     11.473000    -0.001148   -0.000047   -0.000050
           117    0      11.194370      4.802270      1.639000    -0.000686   -0.000005   -0.000325
           118    0      11.194370      4.802270      4.917000    -0.001176   -0.001087    0.000552
           119    0      11.194370      4.802270      8.195000    -0.001476   -0.000148    0.000468
           120    0      11.194370      4.802270     11.473000    -0.001052    0.000777   -0.000723
           121    0      11.161590      8.080270      1.639000     0.000299   -0.000307   -0.000727
           122    0      11.161590      8.080270      4.917000     0.000425   -0.000372    0.000382
           123    0      11.161590      8.080270      8.195000     0.000462   -0.001135    0.000606
           124    0      11.161590      8.080270     11.473000     0.000064   -0.001093   -0.000303
           125    0      11.128810     11.358270      1.639000     0.000414    0.001054   -0.000293
           126    0      11.128810     11.358270      4.917000     0.000974    0.002099    0.000484
           127    0      11.128810     11.358270      8.195000     0.000474    0.001224   -0.000867
           128    0      11.128810     11.358270     11.473000     0.000176    0.000376    0.000746
 Energy
       -988.503753060000
 PlusStress:  xx          yy          zz          yz          xz          xy
       -14.02042    -8.45799    -7.23243    -0.00002     0.00020     9.92089
END_CFG

BEGIN_CFG
 Size
    128
 Supercell
        12.849760     -0.131120      0.000000
        -0.131120     13.112000      0.000000
         0.000000      0.000000     13.112000
 AtomData:  id type       cartes_x      cartes_y      cartes_z           fx          fy          fz
             1    0       6.380640      6.583780      6.465250    -0.118630   -0.141443    0.326722
             2    0       0.022720     13.023180     13.100610    -0.554620   -0.094587    0.360458
             3    0      12.726700      0.041940      3.343190     0.548430   -0.039206   -0.127214
             4    0      12.838940     -0.042840      6.598940    -0.414683   -0.412661   -0.178303
             5    0      -0.065990     13.036520      9.779930    -0.053013    0.051826    0.275871
             6    0       0.094550      3.394960     13.036900    -0.519350   -0.566653    0.482921
             7    0       0.033660      3.330130      3.271920    -0.004854   -0.361572   -0.072566
             8    0      12.679910      3.050250      6.597470     0.367997    0.077583   -0.339744
             9    0      12.718550      3.111760      9.800720     0.475488   -0.049444    0.494552
            10    0      12.704140      6.134230     13.106810     0.307200    1.374088   -0.561608
            11    0      12.764600      6.368510      3.333350    -0.408195    0.738435    0.401062
            12    0       0.078680      6.638650      6.521390    -0.465414    0.097260    0.020740
            13    0       0.025550      6.461960      9.735190    -0.117913    0.728524    0.565799
            14    0      -0.006100      9.790480     13.102420    -0.421959    0.315208    0.991307
            15    0       0.025630      9.754850      3.217460    -0.546065   -0.113099   -0.844182
            16    0      12.667870      9.915300      6.672190     0.234043   -0.679334   -0.373701
            17    0      -0.072040      9.751280      9.555500    -0.117218    0.111337    1.618267
            18    0       3.081180     12.897230      0.121610    -0.115545    1.071075   -0.084116
            19    0       2.928690     12.993500      3.292680     0.915239    0.627858    0.045403
            20    0       3.237540     12.886950      6.659580    -0.753367    0.226451   -0.391431
            21    0       2.934520     13.018300      9.845090     0.065300    0.256832   -0.156505
            22    0       3.113400      3.349020     13.098430     0.131294   -0.060224    0.730154
            23    0       3.186980      3.118890      3.248870    -0.555191    0.385738    0.089474
            24    0       3.096710      3.369540      6.439540     0.101445   -0.202186    0.731943
            25    0       2.969010      3.382180      9.733350     0.775051   -0.845071    0.205974
            26    0       3.215520      6.609280     12.935060     0.275370   -0.864415    0.447082
            27    0       3.223380      6.561220      3.311680     0.030157   -0.272761   -0.171649
            28    0       3.187640      6.563380      6.522490    -1.082208   -0.261029    0.489021
            29    0       3.192250      6.539440      9.881140    -0.390009   -0.257463    0.387480
            30    0       3.072060      9.837540      0.032370    -0.149195   -0.164674   -0.138440
            31    0       3.152110      9.767350      3.315020     0.324544   -0.126913   -0.298577
            32    0       3.186080      9.857040      6.506600    -0.199720   -0.203839   -0.046991
            33    0       3.152650     10.015720      9.864860     0.195605   -0.367292    0.033134
            34    0       6.363360     -0.047220     13.000930     0.302719    0.103587    0.017085
            35    0       6.375480      0.107190      3.452780    -0.096941   -0.620062   -0.664812
            36    0       6.345750     12.887270      6.585970    -0.326457    1.386961   -0.998735
            37    0       6.334500     13.012680      9.918980    -0.374892    0.485180    0.515597
            38    0       6.465070      3.285370      0.061130    -0.185971   -0.282292   -0.300558
            39    0       6.606960      3.177510      3.264950    -0.802922   -0.111532   -0.057524
            40    0       6.325190      3.054670      6.485080     0.170738    0.501068    0.507622
            41    0       6.364000      3.301510      9.714050    -0.097324   -0.266150   -0.276054
            42    0       6.410000      6.377420     12.966880    -0.425090    0.251962    0.638052
            43    0       6.179410      6.446400      3.439520     0.216991    0.213773   -0.375432
            44    0       6.416070      6.452920      9.779260     0.050870    0.225965    0.392854
            45    0       6.543400      9.784790      0.006010    -0.593178    0.340123    0.318723
            46    0       6.322950      9.819730      3.479420    -0.294834   -0.563280   -0.921851
            47    0       6.394990      9.796980      6.651480     0.009555   -0.353091   -0.184866
            48    0       6.221960     10.005640      9.843600     0.246699   -0.704596    0.387308
            49    0       9.595520     -0.029420      0.106930     0.182373   -0.248950   -0.635113
            50    0       9.465250     12.845990      3.149570     0.542011    0.896616    0.645153
            51    0       9.515360     12.918240      6.506800     0.079171    0.146687    0.582326
            52    0       9.656700      0.038250      9.743960    -0.308396   -0.389406    0.067592
            53    0       9.614100      3.093360     12.959280     0.140298   -0.277371    0.025590
            54    0       9.508970      3.218910      3.246810     0.208028    0.115800   -0.069537
            55    0       9.561890      3.253340      6.588230    -0.026581    0.118823   -0.160048
            56    0       9.651580      3.114600      9.789120     0.047015    0.444621    0.248002
            57    0       9.714780      6.629820     13.056670    -0.923932   -1.020976    0.240434
            58    0       9.581310      6.349440      3.267250    -0.043221    0.038965    0.221634
            59    0       9.626420      6.465650      6.437660     0.169796    0.067343    0.138338
            60    0       9.594100      6.440920      9.882440    -0.199888    0.243099    0.007312
            61    0       9.640090      9.614540      0.073450    -0.119951    0.677526   -0.077701
            62    0       9.397320      9.754290      3.314870     0.182082    0.501136   -0.210387
            63    0       9.485760      9.690700      6.447930     0.196747    0.468309    0.813932
            64    0       9.587840      9.608190      9.894880    -0.513502   -0.155759    0.396702
            65    0       1.646300      1.531550      1.688500    -0.153709    0.162198   -0.366803
            66    0       1.548770      1.724670      4.959170     0.156119   -0.230040    0.089092
            67    0       1.484330      1.600390      8.197450     0.719539   -0.015852   -0.366886
            68    0       1.495700      1.647100     11.568610     0.411069   -0.036211   -0.576345
            69    0       1.392560      5.024110      1.571510     1.031746    0.039305    0.437704
            70    0       1.518290      4.988490      4.969800     0.078296   -0.438996   -0.176157
            71    0       1.501720      4.943230      8.321670    -0.121149    0.051370   -1.112887
            72    0       1.644060      4.806870     11.448190    -0.385372    0.511331   -0.236907
            73    0       1.566330      8.155190      1.670670     0.176251   -0.630770   -0.364424
            74    0       1.554440      8.236270      4.706950    -0.013245   -0.188370    0.904964
            75    0       1.540460      8.272830      8.157630     0.569509    0.042589   -0.030473
            76    0       1.638680      8.223390     11.657770    -0.542224   -0.216912   -0.891324
            77    0       1.490500     11.479890      1.657020    -0.324599   -0.207006    0.480893
            78    0       1.508820     11.338660      4.735970    -0.382651    0.356846    1.046416
            79    0       1.421140     11.381440      8.228410     0.594473    0.279888   -0.387919
            80    0       1.464730     11.434510     11.586740    -0.024137   -0.410776   -0.959364
            81    0       4.920090      1.659150      1.640320    -0.489075   -0.155113   -0.172148
            82    0       4.722900      1.583650      4.940220    -0.157330   -0.144081    0.204597
            83    0       4.711740      1.614230      8.153780    -0.180987   -0.036732    0.126616
            84    0       4.684440      1.639740     11.578940    -0.013804   -0.093239   -0.313273
            85    0       4.762700      4.828130      1.712660     0.283905    0.049964   -0.102870
            86    0       4.621050      4.866620      5.012140     0.610265   -0.044145   -0.568911
            87    0       4.769450      4.922740      8.218420     0.033822   -0.176342   -0.592213
            88    0       4.884430      4.810770     11.369510    -0.445175   -0.150130    0.078862
            89    0       4.676950      8.112010      1.587230     0.573931    0.140429   -0.129011
            90    0       4.721460      7.990790      5.057810     0.198390    0.988082   -0.183116
            91    0       4.630790      8.099610      8.281500     0.244701    0.641579   -0.126780
            92    0       4.776240      8.090390     11.412980     0.330593    0.829600   -0.079952
            93    0       4.594690     11.361590      1.574720     0.898023   -0.148876    0.636421
            94    0       4.773100     11.373210      4.919460    -0.147459    0.410650    0.044919
            95    0       4.851080     11.462190      8.121340    -0.140103   -0.137367    0.532772
            96    0       4.617210     11.574190     11.568440     0.159271   -0.167902   -0.013601
            97    0       8.078620      1.443040      1.540160    -0.513039    0.577803    0.646397
            98    0       7.951900      1.573580      4.831520     1.001870   -0.318928    0.647202
            99    0       7.969240      1.575980      8.202630     0.116633   -0.297445   -0.082440
           100    0       8.034680      1.681870     11.305180    -0.487571   -0.278958    0.271317
           101    0       8.021790      4.673150      1.580090     0.202797    0.874148   -0.166149
           102    0       7.931580      4.877390      4.951520     0.295066   -0.363246    0.171006
           103    0       7.890900      4.903290      8.149890     0.173187    0.134926   -0.530471
           104    0       7.899290      4.824550     11.455480     0.712337   -0.299016   -0.052492
           105    0       7.935780      8.121840      1.713760    -0.132763   -0.434058   -0.161659
           106    0       7.934510      8.252700      4.902560    -0.176741   -0.985866   -0.073060
           107    0       8.011740      7.966760      8.130860     0.362048    0.077190    0.049199
           108    0       7.976280      8.197900     11.659390    -0.127507   -0.081158   -0.837617
           109    0       7.954940     11.434190      1.716080    -0.846171   -0.179587   -0.406321
           110    0       7.932540     11.411440      4.872940    -0.381811    0.117064    0.065050
           111    0       7.754620     11.564740      8.252900     1.009445   -0.560308    0.348329
           112    0       7.977890     11.455120     11.529950     0.579852   -0.252145   -0.225500
           113    0      11.206360      1.453470      1.499610     0.245657    0.327433    0.264956
           114    0      11.149440      1.503540      4.881090    -0.390154    0.327630    0.140921
           115    0      11.116530      1.609960      8.177060     0.114352   -0.317402   -0.418330
           116    0      11.333890      1.368720     11.397990    -0.009874    0.126189    0.658092
           117    0      11.337260      4.854840      1.674820    -0.930199   -0.679980    0.102693
           118    0      11.134860      4.763770      4.861360     0.210059   -0.314869    0.205983
           119    0      11.403290      4.738720      8.210760    -0.520405    0.366842   -0.325026
           120    0      11.219100      4.777080     11.450920    -0.393116    0.315626   -0.328470
           121    0      11.000870      8.014310      1.663580     0.755524    0.066831    0.552340
           122    0      11.093460      8.327350      4.832320     0.524553   -0.581608    0.000911
           123    0      11.161850      8.088630      8.297520    -0.357642   -0.381902   -0.656176
           124    0      11.266060      8.014590     11.541890     0.560978    0.028346   -0.792998
           125    0      11.077970     11.413340      1.860920     0.653100   -0.483697   -0.741364
           126    0      11.273380     11.324620      4.951610    -0.461183    0.056340   -0.614510
           127    0      11.037930     11.253710      8.362690    -0.231447    0.284249   -0.170233
           128    0      11.263420     11.308430     11.493960    -0.278352    0.041547   -0.517032
 Energy
       -983.757994730000
 PlusStress:  xx          yy          zz          yz          xz          xy
         3.38492     5.22126     8.67672     0.81586    -0.01747     8.92271
END_CFG

BEGIN_CFG
 Size
    128
 Supercell
        12.849760     -0.131120      0.000000
        -0.131120     13.112000      0.000000
         0.000000      0.000000     13.112000
 AtomData:  id type       cartes_x      cartes_y      cartes_z           fx          fy          fz
             1    0       6.396880      6.689030      6.383360    -0.178036   -0.334308    0.984676
             2    0       0.164170     12.906450      0.006560    -1.254193    0.463572    0.474551
             3    0      12.623910      0.255010      3.412560     1.275307   -0.488299   -0.415290
             4    0      12.788310      0.029960      6.636720    -0.538443   -0.832086   -0.335886
             5    0       0.008740     12.946200      9.737200    -0.533483    0.157142    0.485146
             6    0       0.204840      3.481640     12.987050    -1.327943   -1.978836    0.970481
             7    0       0.117070      3.363700      3.256880    -0.083606   -0.445207   -0.201157
             8    0      12.541930      2.936340      6.616680     0.881400    0.355694   -0.819980
             9    0      12.638320      3.060760      9.804930     0.919224   -0.289014    0.888046
            10    0      12.631390      5.902220     13.047070     0.628478    3.418834   -1.046462
            11    0      12.703670      6.364780      3.438190    -0.523818    1.153214    0.369904
            12    0       0.216780      6.753070      6.481180    -1.062143    0.205922    0.332288
            13    0       0.128510      6.412400      9.663400    -0.535159    1.529893    1.113529
            14    0       0.069670      9.761080      0.068710    -0.952814    0.098775    1.362300
            15    0       0.126160      9.645830      3.063100    -1.678498    0.094422   -1.246963
            16    0      12.583440     10.122310      6.780220     0.384560   -1.130068   -1.165827
            17    0      -0.049290      9.654170      9.355040    -0.184821    0.004916    3.231114
            18    0       3.069650     12.768300      0.267080    -0.301561    2.188164   -0.312931
            19    0       2.820360     12.942080      3.318540     1.705233    0.992333    0.449819
            20    0       3.364950     12.670010      6.753340    -1.439227    1.185873   -0.878703
            21    0       2.758990     12.969540      9.846210     0.758171    1.025266   -0.036920
            22    0       3.044540      3.473550      0.036300     0.613295   -0.358499    1.152443
            23    0       3.148570      2.995560      3.220850    -0.466104    0.815956    0.247341
            24    0       3.000940      3.506890      6.361120     0.210564   -0.612727    1.447575
            25    0       2.775590      3.476000      9.621530     1.687328   -1.721238    0.043184
            26    0       3.326530      6.635980     12.755090     0.323158   -1.740831    1.291592
            27    0       3.317240      6.584130      3.338140    -0.698254   -0.440799   -0.326101
            28    0       3.140070      6.592520      6.526660    -1.668715   -0.165536    0.959419
            29    0       3.215340      6.538520      9.972600    -0.427396   -0.123105    0.064545
            30    0       3.008600      9.868230      0.061390     0.199722   -0.266742   -0.104519
            31    0       3.231760      9.711900      3.334880     0.651023   -0.299529   -0.476604