BEGIN_CFG
 Size
    128
 Supercell
        14.080000      0.000000      0.000000
         0.000000     14.080000      0.000000
         0.000000      0.000000     14.080000
 AtomData:  id type       cartes_x      cartes_y      cartes_z           fx          fy          fz
             1    0       0.000000      0.000000      0.000000    -0.000001   -0.000000   -0.000001
             2    0       1.760000      1.760000      1.760000    -0.000001    0.000002    0.000001
             3    0       0.000000      0.000000      3.520000    -0.000001    0.000000    0.000002
             4    0       1.760000      1.760000      5.280000    -0.000001    0.000001    0.000002
             5    0       0.000000      0.000000      7.040000    -0.000001   -0.000000    0.000001
             6    0       1.760000      1.760000      8.800000    -0.000001    0.000001   -0.000000
             7    0       0.000000      0.000000     10.560000    -0.000000   -0.000000   -0.000002
             8    0       1.760000      1.760000     12.320000    -0.000001    0.000001   -0.000003
             9    0       0.000000      3.520000      0.000000    -0.000001    0.000002   -0.000000
            10    0       1.760000      5.280000      1.760000    -0.000001    0.000001    0.000001
            11    0       0.000000      3.520000      3.520000    -0.000001    0.000002    0.000001
            12    0       1.760000      5.280000      5.280000    -0.000000    0.000001    0.000002
            13    0       0.000000      3.520000      7.040000    -0.000000    0.000002    0.000001
            14    0       1.760000      5.280000      8.800000    -0.000000    0.000001   -0.000001
            15    0       0.000000      3.520000     10.560000    -0.000000    0.000001   -0.000002
            16    0       1.760000      5.280000     12.320000    -0.000001    0.000001   -0.000002
            17    0       0.000000      7.040000      0.000000    -0.000001   -0.000000   -0.000001
            18    0       1.760000      8.800000      1.760000    -0.000000   -0.000001    0.000001
            19    0       0.000000      7.040000      3.520000    -0.000001   -0.000000    0.000002
            20    0       1.760000      8.800000      5.280000    -0.000000   -0.000001    0.000002
            21    0       0.000000      7.040000      7.040000    -0.000000    0.000000    0.000001
            22    0       1.760000      8.800000      8.800000     0.000000   -0.000001   -0.000001
            23    0       0.000000      7.040000     10.560000    -0.000001   -0.000000   -0.000002
            24    0       1.760000      8.800000     12.320000    -0.000001   -0.000000   -0.000002
            25    0       0.000000     10.560000      0.000000    -0.000001   -0.000001   -0.000001
            26    0       1.760000     12.320000      1.760000    -0.000001   -0.000002    0.000001
            27    0       0.000000     10.560000      3.520000    -0.000001   -0.000002    0.000002
            28    0       1.760000     12.320000      5.280000    -0.000001   -0.000002    0.000002
            29    0       0.000000     10.560000      7.040000    -0.000001   -0.000002    0.000000
            30    0       1.760000     12.320000      8.800000    -0.000001   -0.000001   -0.000000
            31    0       0.000000     10.560000     10.560000    -0.000000   -0.000001   -0.000001
            32    0       1.760000     12.320000     12.320000    -0.000001   -0.000002   -0.000003
            33    0       3.520000      0.000000      0.000000    -0.000000   -0.000000   -0.000001
            34    0       5.280000      1.760000      1.760000     0.000000    0.000002    0.000001
            35    0       3.520000      0.000000      3.520000    -0.000000    0.000000    0.000002
            36    0       5.280000      1.760000      5.280000     0.000000    0.000002    0.000002
            37    0       3.520000      0.000000      7.040000    -0.000000   -0.000000    0.000001
            38    0       5.280000      1.760000      8.800000    -0.000000    0.000001   -0.000001
            39    0       3.520000      0.000000     10.560000    -0.000001   -0.000000   -0.000002
            40    0       5.280000      1.760000     12.320000     0.000000    0.000001   -0.000002
            41    0       3.520000      3.520000      0.000000    -0.000000    0.000002   -0.000000
            42    0       5.280000      5.280000      1.760000     0.000001    0.000002    0.000002
            43    0       3.520000      3.520000      3.520000    -0.000000    0.000002    0.000002
            44    0       5.280000      5.280000      5.280000     0.000000    0.000001    0.000002
            45    0       3.520000      3.520000      7.040000    -0.000000    0.000002    0.000001
            46    0       5.280000      5.280000      8.800000     0.000000    0.000001   -0.000001
            47    0       3.520000      3.520000     10.560000    -0.000001    0.000001   -0.000002
            48    0       5.280000      5.280000     12.320000     0.000001    0.000001   -0.000002
            49    0       3.520000      7.040000      0.000000     0.000000    0.000000   -0.000001
            50    0       5.280000      8.800000      1.760000     0.000001   -0.000001    0.000001
            51    0       3.520000      7.040000      3.520000     0.000000    0.000000    0.000002
            52    0       5.280000      8.800000      5.280000     0.000000   -0.000001    0.000002
            53    0       3.520000      7.040000      7.040000    -0.000000    0.000000    0.000001
            54    0       5.280000      8.800000      8.800000     0.000000   -0.000001   -0.000001
            55    0       3.520000      7.040000     10.560000     0.000000    0.000001   -0.000003
            56    0       5.280000      8.800000     12.320000     0.000000   -0.000001   -0.000002
            57    0       3.520000     10.560000      0.000000    -0.000000   -0.000002   -0.000001
            58    0       5.280000     12.320000      1.760000     0.000000   -0.000002    0.000001
            59    0       3.520000     10.560000      3.520000     0.000000   -0.000002    0.000002
            60    0       5.280000     12.320000      5.280000     0.000000   -0.000002    0.000002
            61    0       3.520000     10.560000      7.040000    -0.000000   -0.000002    0.000001
            62    0       5.280000     12.320000      8.800000    -0.000000   -0.000002   -0.000001
            63    0       3.520000     10.560000     10.560000    -0.000001   -0.000002   -0.000002
            64    0       5.280000     12.320000     12.320000    -0.000000   -0.000002   -0.000002
            65    0       7.040000      0.000000      0.000000     0.000001   -0.000000   -0.000001
            66    0       8.800000      1.760000      1.760000     0.000001    0.000001    0.000001
            67    0       7.040000      0.000000      3.520000     0.000000   -0.000001    0.000002
            68    0       8.800000      1.760000      5.280000     0.000000    0.000001    0.000002
            69    0       7.040000      0.000000      7.040000     0.000000   -0.000000    0.000000
            70    0       8.800000      1.760000      8.800000     0.000000    0.000002   -0.000001
            71    0       7.040000      0.000000     10.560000     0.000000    0.000000   -0.000002
            72    0       8.800000      1.760000     12.320000     0.000001    0.000002   -0.000002
            73    0       7.040000      3.520000      0.000000     0.000001    0.000002   -0.000001
            74    0       8.800000      5.280000      1.760000     0.000001    0.000002    0.000001
            75    0       7.040000      3.520000      3.520000     0.000000    0.000002    0.000002
            76    0       8.800000      5.280000      5.280000     0.000000    0.000001    0.000002
            77    0       7.040000      3.520000      7.040000     0.000000    0.000002    0.000001
            78    0       8.800000      5.280000      8.800000     0.000000    0.000002   -0.000000
            79    0       7.040000      3.520000     10.560000     0.000001    0.000002   -0.000002
            80    0       8.800000      5.280000     12.320000     0.000001    0.000001   -0.000002
            81    0       7.040000      7.040000      0.000000     0.000001   -0.000000   -0.000000
            82    0       8.800000      8.800000      1.760000     0.000001   -0.000001    0.000001
            83    0       7.040000      7.040000      3.520000     0.000001   -0.000000    0.000002
            84    0       8.800000      8.800000      5.280000     0.000001   -0.000001    0.000001
            85    0       7.040000      7.040000      7.040000     0.000001    0.000000    0.000001
            86    0       8.800000      8.800000      8.800000     0.000000   -0.000002   -0.000000
            87    0       7.040000      7.040000     10.560000     0.000001    0.000000   -0.000002
            88    0       8.800000      8.800000     12.320000     0.000001   -0.000001   -0.000002
            89    0       7.040000     10.560000      0.000000     0.000001   -0.000002   -0.000000
            90    0       8.800000     12.320000      1.760000     0.000001   -0.000002    0.000001
            91    0       7.040000     10.560000      3.520000     0.000001   -0.000002    0.000002
            92    0       8.800000     12.320000      5.280000     0.000001   -0.000002    0.000002
            93    0       7.040000     10.560000      7.040000     0.000000   -0.000002    0.000000
            94    0       8.800000     12.320000      8.800000     0.000001   -0.000002   -0.000001
            95    0       7.040000     10.560000     10.560000     0.000001   -0.000002   -0.000002
            96    0       8.800000     12.320000     12.320000     0.000001   -0.000002   -0.000002
            97    0      10.560000      0.000000      0.000000     0.000001   -0.000000   -0.000001
            98    0      12.320000      1.760000      1.760000    -0.000000    0.000002    0.000001
            99    0      10.560000      0.000000      3.520000     0.000001   -0.000001    0.000002
           100    0      12.320000      1.760000      5.280000     0.000000    0.000001    0.000001
           101    0      10.560000      0.000000      7.040000     0.000001   -0.000001    0.000000
           102    0      12.320000      1.760000      8.800000     0.000000    0.000001   -0.000001
           103    0      10.560000      0.000000     10.560000     0.000001   -0.000000   -0.000001
           104    0      12.320000      1.760000     12.320000    -0.000000    0.000001   -0.000001
           105    0      10.560000      3.520000      0.000000     0.000001    0.000002   -0.000001
           106    0      12.320000      5.280000      1.760000    -0.000000    0.000001    0.000001
           107    0      10.560000      3.520000      3.520000     0.000001    0.000002    0.000001
           108    0      12.320000      5.280000      5.280000    -0.000000    0.000001    0.000001
           109    0      10.560000      3.520000      7.040000     0.000000    0.000002    0.000001
           110    0      12.320000      5.280000      8.800000    -0.000000    0.000001   -0.000001
           111    0      10.560000      3.520000     10.560000     0.000000    0.000002   -0.000001
           112    0      12.320000      5.280000     12.320000    -0.000001    0.000001   -0.000001
           113    0      10.560000      7.040000      0.000000    -0.000000   -0.000001   -0.000001
           114    0      12.320000      8.800000      1.760000    -0.000001   -0.000001    0.000001
           115    0      10.560000      7.040000      3.520000     0.000000    0.000000    0.000002
           116    0      12.320000      8.800000      5.280000    -0.000000   -0.000001    0.000002
           117    0      10.560000      7.040000      7.040000    -0.000000    0.000000    0.000001
           118    0      12.320000      8.800000      8.800000    -0.000001   -0.000001   -0.000001
           119    0      10.560000      7.040000     10.560000    -0.000000   -0.000000   -0.000002
           120    0      12.320000      8.800000     12.320000    -0.000001   -0.000001   -0.000002
           121    0      10.560000     10.560000      0.000000     0.000000   -0.000002   -0.000001
           122    0      12.320000     12.320000      1.760000    -0.000001   -0.000001    0.000001
           123    0      10.560000     10.560000      3.520000     0.000000   -0.000002    0.000002
           124    0      12.320000     12.320000      5.280000    -0.000000   -0.000001    0.000002
           125    0      10.560000     10.560000      7.040000     0.000000   -0.000002    0.000000
           126    0      12.320000     12.320000      8.800000     0.000000   -0.000002   -0.000001
           127    0      10.560000     10.560000     10.560000     0.000000   -0.000002   -0.000001
           128    0      12.320000     12.320000     12.320000    -0.000000   -0.000001   -0.000002
 Energy
       -242.474345820000
 PlusStress:  xx          yy          zz          yz          xz          xy
       -15.96725   -15.96724   -15.96724     0.00000    -0.00000    -0.00000
 Feature   MV_grade	4849054.494141
 Feature   TS_index	1
END_CFG

BEGIN_CFG
 Size
    128
 Supercell
        14.080000      0.000000      0.000000
         0.000000     14.080000      0.000000
         0.000000      0.000000     14.080000
 AtomData:  id type       cartes_x      cartes_y      cartes_z           fx          fy          fz
             1    0       0.012750      0.053600     14.027140    -0.039572   -0.034330    0.047337
             2    0       1.849820      1.712650      1.750870    -0.137086    0.090618    0.014865
             3    0      14.008000      0.097160      3.557190     0.103011   -0.086714   -0.052099
             4    0       1.757400      1.812690      5.306410     0.025222   -0.077993    0.042345
             5    0       0.036560     14.038320      7.007650    -0.036962    0.107036    0.026388
             6    0       1.835240      1.827910      8.754720     0.001429   -0.093517    0.056293
             7    0       0.037690      0.033240     10.556980    -0.031666    0.008800   -0.029980
             8    0       1.680840      1.705480     12.345490     0.137580    0.084827   -0.041571
             9    0      14.020840      3.499750     14.057850     0.038133   -0.005082    0.004837
            10    0       1.713140      5.108630      1.759760     0.016759    0.178805   -0.024580
            11    0      14.071800      3.482600      3.547930    -0.004697    0.052561   -0.045359
            12    0       1.843930      5.325240      5.261800    -0.153491   -0.059036    0.037861
            13    0       0.051080      3.461980      6.980310    -0.039406    0.090387    0.066143
            14    0       1.815910      5.252220      8.785640    -0.009890    0.005696   -0.035513
            15    0       0.072230      3.477590     10.532660    -0.067958    0.079867    0.053948
            16    0       1.712350      5.404070     12.386150     0.102518   -0.166992   -0.116253
            17    0       0.015470      6.994230     13.913930    -0.032644    0.123021    0.249082
            18    0       1.759070      8.691080      1.827900    -0.082817    0.119372   -0.095912
            19    0      13.988130      6.986380      3.528840     0.138789    0.001964   -0.001276
            20    0       1.852780      8.691400      5.340200    -0.120406    0.105800   -0.100740
            21    0      13.998770      7.003850      7.048880     0.164259    0.037039    0.041208
            22    0       1.722050      8.857180      8.786670     0.017953   -0.136075   -0.016661
            23    0       0.009130      6.966200     10.542500    -0.010851    0.090473   -0.032636
            24    0       1.712850      8.871410     12.249360     0.062254   -0.030285    0.118964
            25    0      13.956760     10.642730     14.022060     0.159198   -0.094784    0.114327
            26    0       1.796250     12.375040      1.657920    -0.048137    0.009606    0.088505
            27    0       0.042280     10.583800      3.539680    -0.012034   -0.015139   -0.058339
            28    0       1.791440     12.344780      5.258140     0.012963   -0.045455    0.024009
            29    0       0.028750     10.571170      7.062650    -0.006378   -0.036406   -0.064083
            30    0       1.738250     12.341780      8.819460     0.047814   -0.032445   -0.012076
            31    0       0.019180     10.541580     10.582470    -0.040410    0.028231   -0.050073
            32    0       1.802430     12.352310     12.292800    -0.007546    0.009118    0.012882
            33    0       3.540470      0.122300      0.016150     0.032948   -0.182389   -0.072537
            34    0       5.243600      1.770770      1.698980     0.030935    0.052194    0.105148
            35    0       3.493610      0.101000      3.623160     0.050128   -0.139749   -0.110248
            36    0       5.311450      1.661880      5.303730    -0.043365    0.177100   -0.041278
            37    0       3.544960     14.058310      7.083110    -0.020965    0.043441   -0.040369
            38    0       5.322420      1.802530      8.836190    -0.038348   -0.033561   -0.019787
            39    0       3.644040     14.062330     10.552720    -0.163286    0.041193    0.004541
            40    0       5.242220      1.667970     12.277050     0.078016    0.123326    0.112535
            41    0       3.505340      3.571750     14.013580    -0.011883   -0.073193   -0.016050
            42    0       5.311080      5.215120      1.673580    -0.063331    0.067086    0.063705
            43    0       3.419440      3.493310      3.612970     0.180120   -0.006147   -0.089525
            44    0       5.310960      5.257890      5.245880    -0.004079    0.024697    0.024286
            45    0       3.646980      3.527590      7.041400    -0.044826    0.012660   -0.018415
            46    0       5.280300      5.313250      8.921250     0.004050   -0.006699   -0.090776
            47    0       3.558170      3.539470     10.615810    -0.068298   -0.009934    0.025566
            48    0       5.220200      5.418250     12.323540     0.089727   -0.081761    0.050388
            49    0       3.494400      7.079460      0.063610    -0.038324   -0.054573   -0.084840
            50    0       5.252390      8.701270      1.683760     0.033418    0.131014    0.062327
            51    0       3.525620      6.983960      3.487580     0.053275   -0.024296   -0.016072
            52    0       5.292790      8.878260      5.228600    -0.072789   -0.157108    0.029937
            53    0       3.525750      6.994040      6.954980     0.106144    0.026997    0.144280
            54    0       5.226210      8.819780      8.783610     0.073653   -0.070488    0.041428
            55    0       3.495470      7.080940     10.579120    -0.058974    0.013027   -0.037537
            56    0       5.305980      8.760630     12.292670    -0.033347    0.066697   -0.008380
            57    0       3.605380     10.662240     14.047150    -0.134269   -0.190436    0.022219
            58    0       5.285380     12.260440      1.752090    -0.011738    0.126983    0.031222
            59    0       3.548900     10.564130      3.452250    -0.048583   -0.034917    0.038236
            60    0       5.293810     12.308700      5.306660    -0.065508   -0.003553   -0.029494
            61    0       3.577220     10.488120      7.081610    -0.095454    0.116899   -0.069828
            62    0       5.200160     12.325810      8.821530     0.143916   -0.033215   -0.015158
            63    0       3.489140     10.531320     10.493490     0.048751    0.045662    0.073621
            64    0       5.310580     12.249570     12.350960    -0.023746    0.094461   -0.067652
            65    0       7.072610     14.027630      0.030690    -0.047308    0.057751    0.030543
            66    0       8.775290      1.818210      1.782220     0.015012   -0.117085   -0.036505
            67    0       6.974630     14.068250      3.524520     0.066315    0.004775   -0.025882
            68    0       8.744020      1.773820      5.337560     0.060518    0.007897   -0.039687
            69    0       6.941590      0.067690      7.000480     0.134667   -0.138302    0.127076
            70    0       8.777140      1.812540      8.830490     0.019250   -0.068534   -0.047193
            71    0       7.011280      0.022630     10.638250     0.036869   -0.054922   -0.112043
            72    0       8.851600      1.704510     12.308730    -0.054030    0.075251    0.060840
            73    0       7.061540      3.511900      0.019470    -0.048312   -0.047103   -0.122209
            74    0       8.817230      5.312740      1.635740    -0.016475   -0.028722    0.159465
            75    0       7.044920      3.572150      3.499240     0.025757   -0.045055    0.031425
            76    0       8.868840      5.306430      5.389740    -0.044170   -0.016903   -0.125498
            77    0       7.040740      3.534310      7.046070    -0.062154    0.011676   -0.008442
            78    0       8.812320      5.212180      8.691500    -0.020592    0.121349    0.136767
            79    0       6.997220      3.475880     10.582970     0.046800    0.086331    0.064371
            80    0       8.785700      5.271330     12.390380    -0.030275    0.018483   -0.101222
            81    0       7.110250      7.080130      0.001590    -0.067652   -0.024286   -0.033968
            82    0       8.755920      8.798400      1.772170     0.031426    0.016648    0.016540
            83    0       6.991190      7.053880      3.495980     0.064832   -0.050003    0.024412
            84    0       8.734640      8.828190      5.342710     0.067444   -0.033783   -0.016114
            85    0       7.033200      7.017040      7.081930    -0.064221    0.030127   -0.050836
            86    0       8.713230      8.799210      8.858020     0.119991   -0.045175   -0.070763
            87    0       7.039570      7.072050     10.577440     0.047462   -0.065860   -0.022364
            88    0       8.866330      8.768840     12.261890    -0.099589   -0.017793    0.070465
            89    0       7.001770     10.538640     14.052060     0.083944   -0.041226    0.019828
            90    0       8.789540     12.226000      1.840360    -0.015427    0.071581   -0.058114
            91    0       6.979040     10.528550      3.568170     0.050700    0.002005   -0.096476
            92    0       8.818860     12.282750      5.247660    -0.092236    0.033938    0.060243
            93    0       6.971830     10.526400      7.000100     0.053012    0.075250    0.105087
            94    0       8.839270     12.289060      8.800820    -0.106293    0.079539    0.001455
            95    0       7.122010     10.582500     10.515750    -0.118737   -0.000529    0.069638
            96    0       8.749840     12.404910     12.372020     0.058296   -0.122745   -0.068326
            97    0      10.598130     14.012510     14.020650    -0.084915    0.072246    0.063832
            98    0      12.277890      1.771230      1.706280     0.036886   -0.029352    0.007102
            99    0      10.532970      0.013960      3.525120     0.002857    0.016072    0.023912
           100    0      12.333260      1.831800      5.185040    -0.076265   -0.093652    0.176684
           101    0      10.581660     13.982060      7.007970     0.007962    0.122722    0.023596
           102    0      12.288830      1.786980      8.818090     0.029539   -0.021553   -0.025846
           103    0      10.508750      0.035440     10.538280     0.071037   -0.098224   -0.005852
           104    0      12.268120      1.755990     12.309180     0.012454    0.018116   -0.052571
           105    0      10.554400      3.528660      0.042530     0.008482   -0.000414   -0.067245
           106    0      12.312340      5.364930      1.751930    -0.016913   -0.077088   -0.017689
           107    0      10.591840      3.439500      3.483300    -0.050682    0.172675    0.038830
           108    0      12.336240      5.326940      5.390480    -0.059691   -0.106522   -0.146046
           109    0      10.587850      3.544320      7.085570     0.021132   -0.081590   -0.061822
           110    0      12.332890      5.290060      8.774670     0.025848   -0.100882    0.028725
           111    0      10.462980      3.621420     10.590090     0.102863   -0.066478   -0.005729
           112    0      12.350380      5.317500     12.353780    -0.037055   -0.130282   -0.057057
           113    0      10.547110      6.998090     13.999600     0.026088    0.092473    0.058901
           114    0      12.279180      8.785760      1.738450     0.036548    0.007828   -0.015226
           115    0      10.496760      7.090020      3.512830     0.024240   -0.055691    0.024736
           116    0      12.379230      8.712590      5.232980    -0.060380    0.132774    0.066057
           117    0      10.645250      7.075140      7.060080    -0.126047    0.021311    0.016315
           118    0      12.285610      8.781230      8.767740     0.076000    0.065349    0.087350
           119    0      10.679170      7.001350     10.570460    -0.152983    0.001315   -0.039853
           120    0      12.337650      8.783590     12.310100     0.000393   -0.003065   -0.002867
           121    0      10.464670     10.522840      0.010000     0.090923    0.056912   -0.026908
           122    0      12.278590     12.461780      1.712960     0.041018   -0.151273    0.093306
           123    0      10.563790     10.566750      3.582870     0.057588   -0.038378   -0.035356
           124    0      12.374530     12.282300      5.324280    -0.061266    0.010512   -0.044760
           125    0      10.528010     10.592650      7.170360     0.053435   -0.075146   -0.134788
           126    0      12.403410     12.301470      8.824900    -0.076748    0.009528    0.045056
           127    0      10.510670     10.500120     10.656220     0.073779    0.110419   -0.087452
           128    0      12.397130     12.291820     12.335740    -0.119861    0.074603   -0.093185
 Energy
       -241.817552100000
 PlusStress:  xx          yy          zz          yz          xz          xy
       -15.11140   -15.17946   -14.94601     0.06929     0.01367    -0.11672
 Feature   MV_grade	6.945155
 Feature   TS_index	2
END_CFG

BEGIN_CFG
 Size
    128
 Supercell
        14.080000      0.000000      0.000000
         0.000000     14.080000      0.000000
         0.000000      0.000000     14.080000
 AtomData:  id type       cartes_x      cartes_y      cartes_z           fx          fy          fz
             1    0       0.024750      0.132120     13.952170    -0.135336   -0.118501    0.144188
             2    0       1.967570      1.653650      1.739720    -0.328345    0.194717    0.061902
             3    0      13.912010      0.236230      3.606990     0.237326   -0.215627   -0.117768
             4    0       1.757820      1.881570      5.356430     0.052564   -0.217030    0.082131
             5    0       0.088570     13.991220      6.960900    -0.069007    0.222073    0.067443
             6    0       1.956260      1.919580      8.692630     0.008788   -0.191793    0.124066
             7    0       0.091840      0.087770     10.546260    -0.082948    0.003267   -0.079056
             8    0       1.580510      1.634850     12.378710     0.344579    0.227235   -0.087054
             9    0      13.933250      3.466900     14.022860     0.090385    0.012755   -0.006220
            10    0       1.641830      4.866970      1.754710     0.067946    0.378283   -0.058142
            11    0      14.058300      3.433140      3.583850     0.011712    0.143176   -0.113676
            12    0       1.948960      5.386110      5.239430    -0.372738   -0.158075    0.071870
            13    0       0.124500      3.386360      6.897620    -0.136732    0.222470    0.176409
            14    0       1.903660      5.208950      8.755990    -0.022284    0.021055   -0.077363
            15    0       0.175520      3.424390     10.498790    -0.140808    0.170436    0.112931
            16    0       1.658040      5.569670     12.469060     0.350086   -0.456694   -0.314914
            17    0       0.032010      6.946570     13.696360    -0.166879    0.385269    0.633517
            18    0       1.741870      8.537500      1.920810    -0.193531    0.210808   -0.127820
            19    0      13.867090      6.900310      3.542930     0.319334   -0.019431    0.003708
            20    0       1.978370      8.538160      5.417380    -0.293512    0.280717   -0.243064
            21    0      13.900570      6.953810      7.071100     0.417730    0.124005    0.101966
            22    0       1.664700      8.923610      8.762610     0.047404   -0.291882   -0.017957
            23    0       0.022040      6.864730     10.508230    -0.008703    0.195369   -0.075295
            24    0       1.649040      8.979270     12.158890     0.144847   -0.109947    0.288512
            25    0      13.788980     10.757030     13.951550     0.352025   -0.239039    0.300100
            26    0       1.845560     12.464390      1.510380    -0.097796   -0.008292    0.178296
            27    0       0.107670     10.618880      3.560650    -0.032086   -0.042928   -0.116380
            28    0       1.844040     12.376200      5.227640     0.019757   -0.092881    0.056053
            29    0       0.073490     10.582630      7.086990    -0.020844   -0.064398   -0.141528
            30    0       1.712420     12.370630      8.848480     0.110242   -0.071309   -0.025354