BEGIN_CFG
 Size
    3
 Supercell
         3.076460      0.000000      0.000000
        -1.012530      4.047570      0.000000
         0.065987     -0.101927      1.676710
 AtomData:  id type       cartes_x      cartes_y      cartes_z           fx          fy          fz
             1    0       2.064010      4.047140      0.000020    -0.095257    0.100440    0.042827
             2    0      -0.544390      3.322540      0.868480    20.184745  -32.481209  -14.049499
             3    0       2.674230      0.623530      0.808200   -20.089488   32.380769   14.006671
 Energy
          2.472154300000
 PlusStress:  xx          yy          zz          yz          xz          xy
        19.68891    42.85910    55.38949    15.53296    -9.99395   -26.47532
 Feature   MV_grade	33351646.496133
 Feature   TS_index	1
 Feature   selected_eqn_inds	0
END_CFG

BEGIN_CFG
 Size
    3
 Supercell
         1.931120      0.000000      0.000000
         0.945593      2.712250      0.000000
         0.385949      1.132430      4.214120
 AtomData:  id type       cartes_x      cartes_y      cartes_z           fx          fy          fz
             1    0       0.555640      1.504860      2.388760     3.623350  -17.417670    6.270037
             2    0       2.209870      2.691050      2.092420     4.629767   30.965340   28.022312
             3    0       1.995000      2.225710      1.101560    -8.253117  -13.547670  -34.292349
 Energy
         -6.276660560000
 PlusStress:  xx          yy          zz          yz          xz          xy
         1.62855    31.40384    36.30863     8.28299     9.24294    -0.33376
 Feature   MV_grade	19638363.035101
 Feature   TS_index	2
 Feature   selected_eqn_inds	0
END_CFG

BEGIN_CFG
 Size
    3
 Supercell
         3.699120      0.000000      0.000000
        -1.578740      3.340320      0.000000
        -0.409009     -0.561745      1.847660
 AtomData:  id type       cartes_x      cartes_y      cartes_z           fx          fy          fz
             1    0      -0.244870      0.521260      0.339760     5.614442    1.060755    6.284722
             2    0       1.783650      0.313350      0.479410   -25.107681   33.429482  -28.563803
             3    0       2.094940     -0.321280      1.226510    19.493239  -34.490237   22.279081
 Energy
         -2.772030090000
 PlusStress:  xx          yy          zz          yz          xz          xy
        12.75604    20.87499    47.19698   -22.44977    11.94396   -10.80150
 Feature   MV_grade	19080804.296622
 Feature   TS_index	3
 Feature   selected_eqn_inds	0
END_CFG

BEGIN_CFG
 Size
    6
 Supercell
         5.165810      0.000000      0.000000
         1.067430      2.695590      0.000000
        -0.005823      0.016202      3.297330
 AtomData:  id type       cartes_x      cartes_y      cartes_z           fx          fy          fz
             1    0       4.312140      0.616450      3.290510   -25.429733   17.864363    5.636313
             2    0       0.299200      0.178950      3.169510    51.755411    0.929680   28.068470
             3    0       4.457370      1.139360      1.620600    -4.362230    8.859724   -0.060157
             4    0       1.860270      0.822850      0.101230     0.371926    1.285692    0.172541
             5    0       5.943640      2.700960      2.362640   -22.695852  -18.362782  -46.652825
             6    0       6.043220      2.684900      0.996170     0.360479  -10.576677   12.835658
 Energy
        -10.071906590000
 PlusStress:  xx          yy          zz          yz          xz          xy
        43.42547    20.89608    92.25588     8.53177    14.68942   -10.86740
 Feature   MV_grade	22610553.672551
 Feature   TS_index	4
 Feature   selected_eqn_inds	0
END_CFG

BEGIN_CFG
 Size
    6
 Supercell
         3.225660      0.000000      0.000000
        -0.000046      6.558400      0.000000
         0.000018     -0.000027      3.623500
 AtomData:  id type       cartes_x      cartes_y      cartes_z           fx          fy          fz
             1    0       0.590200      4.254390      1.814570     0.479925  -12.672934    0.009728
             2    0       0.579870      5.676740      1.810160    11.807541  -35.849678   -0.107340
             3    0       2.202030      4.445210      1.809060    -0.894079  -63.376654   -0.209368
             4    0       2.207620      5.452030      1.813120    -1.374109   42.263510    0.230447
             5    0       3.056990      6.437660      1.811780   -20.485147   42.662015    0.050001
             6    0       1.387950      6.525900      1.811810    10.465869   26.973740    0.026532
 Energy
         -4.292150440000
 PlusStress:  xx          yy          zz          yz          xz          xy
        36.03165   141.95043     0.64069     0.25251    -0.01687    -5.97652
 Feature   MV_grade	18222871.377114
 Feature   TS_index	5
 Feature   selected_eqn_inds	0
END_CFG

BEGIN_CFG
 Size
    12
 Supercell
         4.597710      0.000000      0.000000
        -2.098460      4.090900      0.000000
        -1.249630     -2.045450      3.923460
 AtomData:  id type       cartes_x      cartes_y      cartes_z           fx          fy          fz
             1    0       0.013430     -1.005100      2.507600    24.212961  -15.993577  -11.201460
             2    0       0.349190      1.598650      1.415860   -25.280739   14.243534   11.201921
             3    0      -1.651730      0.012190      3.388010   -10.092908    4.965054  -29.000458
             4    0       2.014350      0.581360      0.535460     9.024884   -6.714621   28.999846
             5    0      -0.402100      2.057640      0.535460   -10.093493    4.965576   28.999830
             6    0       0.764720     -1.464090      3.388010     9.024302   -6.714283  -29.000281
             7    0      -0.900430     -0.446790      2.507600   -25.281641   14.244575  -11.201185
             8    0       1.263060      1.040350      1.415860    24.212174  -15.992468   11.201929
             9    0       1.206580      1.975000      2.673880     1.068576    1.749082    2.061238
            10    0      -0.043040     -0.070450      1.249590     1.068667    1.749051   -2.061550
            11    0       3.488340      0.581000      0.000000     2.827660    0.674392    0.000067
            12    0      -1.075170      3.368990      0.000000    -0.690443    2.823686    0.000102
 Energy
        -29.398863250000
 PlusStress:  xx          yy          zz          yz          xz          xy
       114.87648    55.76590   150.07733    -0.00038    -0.00014   -57.61664
 Feature   MV_grade	24885436.750181
 Feature   TS_index	6
 Feature   selected_eqn_inds	0
END_CFG

BEGIN_CFG
 Size
    12
 Supercell
         4.437860      0.000000      0.000000
         1.300470      4.243140      0.000000
         1.300460      0.955079      4.134310
 AtomData:  id type       cartes_x      cartes_y      cartes_z           fx          fy          fz
             1    0       4.693760      3.289530      3.869130    -0.807534   -5.127185   16.982705
             2    0       5.691120      3.161380      2.334320    14.571508   -5.311421   -8.886640
             3    0       4.526340      4.561170      2.554860    -5.137137   16.732087   -3.187669
             4    0       1.347680      2.212240      1.579430   -14.572547    9.856006    3.175848
             5    0       2.345020      0.688010      1.800030     0.810452  -15.395736    8.821860
             6    0       2.512440      1.682280      0.265190     5.135641   -0.661345  -17.019847
             7    0       1.875840      1.385320      1.101800   -22.568945  -16.995205  -13.415722
             8    0       5.162950      3.812890      3.032520    22.568570   16.892417   13.542213
             9    0       1.789810      3.581300      0.000000     4.464831   -6.004437   -0.037904
            10    0       5.738310      1.467980      3.489420    -0.000381    4.621948   -5.810848
            11    0       5.248990      4.392100      0.644880    -4.464502    1.388448    5.841402
            12    0       3.519400      2.599110      2.067160     0.000042    0.004425   -0.005398
 Energy
        -10.743814600000
 PlusStress:  xx          yy          zz          yz          xz          xy
       100.53573   122.78217   132.41806   -20.85220   -28.52715   -35.87167
 Feature   MV_grade	23251543.399115
 Feature   TS_index	7
 Feature   selected_eqn_inds	0
END_CFG

BEGIN_CFG
 Size
    28
 Supercell
         6.070100      0.000000      0.000000
         2.023370      5.722940      0.000000
         2.023370     -2.861470      4.956210
 AtomData:  id type       cartes_x      cartes_y      cartes_z           fx          fy          fz
             1    0       1.211140      0.000000      0.000000     0.975524   -0.000092    0.000046
             2    0       5.666380      0.570940      0.988890    -0.325093    0.459859    0.796477
             3    0       7.689750      4.581070      0.000000    -0.325057   -0.919746    0.000009
             4    0       7.689750     -2.290530      3.967320    -0.325146    0.459862   -0.796502
             5    0       8.977310      2.055710      3.560590    -8.313055   -5.877728  -10.180913
             6    0       7.209620      0.805760      1.395620     8.312906    5.878576   10.180981
             7    0       4.930570     -0.805760      1.395620    -8.312310   -5.878054   10.181433
             8    0       5.186260      3.667230      3.560590     8.312831    5.878323  -10.180826
             9    0       4.930570      1.611530      0.000000    -8.313481   11.755739    0.000048
            10    0       3.162890      4.111410      0.000000     8.312894  -11.756199   -0.000208
            11    0       8.070050     -0.806140      4.880240   -10.209830   21.169636   -6.050442
            12    0       2.938030      4.297820      1.167530     8.442708  -22.419585    3.885737
            13    0       4.140110      0.707180      0.075970   -16.555115   16.684343    6.050481
            14    0       5.085460      1.524080      3.788680    18.323432  -15.433564   -3.884983
            15    0       4.023320      1.768010      3.214230   -10.210999  -15.824490  -15.308454
            16    0       8.186840      2.573670      4.305790   -16.555641   -3.102778  -17.474828
            17    0       1.038730     -0.342410      1.741980    18.322612    4.350527   15.308628
            18    0       6.984760      1.723670      0.650430     8.442752   14.575157   17.473073
            19    0       6.046680     -0.961870      1.817960   -10.210073   -5.344870   21.358700
            20    0       3.062100     -1.181660      4.381760    18.322893   11.081769  -11.422891
            21    0       4.961400      2.562920      3.138250     8.442900    7.844942  -21.359234
            22    0       6.163480      5.303550      0.574450   -16.555654  -13.581607   11.423623
            23    0       5.067950     -0.708620      3.728840    -0.059575   -0.042118   -0.072982
            24    0       5.048870      3.570090      1.227370     0.059538    0.042102    0.072931
            25    0       7.091320      0.722110      3.705480    -0.059565   -0.042113    0.073001
            26    0       3.025510      2.139360      1.250740     0.059599    0.042137   -0.072942
            27    0       3.044590     -0.013490      2.478110    -0.059552    0.084226    0.000019
            28    0       7.072240      2.874960      2.478110     0.059559   -0.084255    0.000018
 Energy
        -62.724367560000
 PlusStress:  xx          yy          zz          yz          xz          xy
       218.51088   218.51296   218.51259    -0.00096     0.00152     0.00003
 Feature   MV_grade	26326011.819129
 Feature   TS_index	8
 Feature   selected_eqn_inds	0
END_CFG

BEGIN_CFG
 Size
    27
 Supercell
         5.593760      0.000000      0.000000
        -0.164466      5.639197      0.000000
        -1.570215      0.112233      6.711409
 AtomData:  id type       cartes_x      cartes_y      cartes_z           fx          fy          fz
             1    0      -0.245976      4.457446      2.617091     0.000760   -0.000372   -0.000377
             2    0      -0.176418      4.186062      4.345024     0.000917    0.000841    0.000447
             3    0       0.472489      3.834418      1.003545    -0.000907    0.000318   -0.000129
             4    0       1.554573      2.659878      1.841245     0.000253    0.000497   -0.000968
             5    0       0.487833      1.355371      4.295312    -0.000350    0.001651    0.000584
             6    0       0.484839      5.528832      5.284801    -0.000068   -0.001165   -0.000204
             7    0       0.464691      2.832782      5.266927     0.000424   -0.000469   -0.001086
             8    0       0.880724      5.423640      3.600659     0.000767   -0.000065   -0.000034
             9    0       0.579596      1.352076      2.561486     0.000378   -0.000645    0.000158
            10    0      -0.522734      1.383614      5.891960    -0.000207   -0.000073    0.000180
            11    0       1.351353      1.110506      1.027640    -0.000163   -0.000146   -0.000797
            12    0       1.077945      5.294603      0.070212     0.000428    0.000610    0.000881
            13    0       1.647098      2.604973      0.192121    -0.001552   -0.002052    0.001401
            14    0       2.326928      5.442257      1.367274    -0.000472    0.000465    0.000527
            15    0       3.371682      4.585411      6.595702     0.000100   -0.000161   -0.000406
            16    0       4.823765      2.740249      0.260565    -0.000699   -0.000014   -0.000731
            17    0       3.899418      5.638338      0.683645    -0.000733    0.000032   -0.000948
            18    0       3.268282      1.705354      5.556096     0.000464   -0.000335   -0.000070
            19    0       2.305223      5.714998      5.748262    -0.000191    0.000047    0.000297
            20    0       2.431311      4.975056      3.062687     0.000156   -0.000353   -0.000291
            21    0       4.791172      1.397659      1.445697    -0.000053   -0.000718   -0.000609
            22    0       3.904993      4.107183      3.483384    -0.000958    0.000496   -0.000680
            23    0       3.539118      2.408974      3.983114    -0.001001    0.001299    0.001911
            24    0       4.576637      1.427551      3.125400     0.000996    0.000195    0.000210
            25    0       2.412364      3.265581      3.157104     0.001564    0.000738   -0.001266
            26    0       1.955485      2.394960      4.601731     0.000281   -0.000823    0.001025
            27    0       3.858773      5.575931      2.364628    -0.000136    0.000199    0.000972
 Energy
       -167.384715026591
 PlusStress:  xx          yy          zz          yz          xz          xy
        -0.00833    -0.00964    -0.01027     0.00129    -0.00339    -0.00478
 Feature   EFS_by	MTP778
 Feature   MV_grade	7.170552
 Feature   TS_index	9
 Feature   from	relaxation_OK
 Feature   min_dist	1.638792
 Feature   number	1
 Feature   selected_eqn_inds	0
END_CFG

BEGIN_CFG
 Size
    27
 Supercell
         7.592904      0.000000      0.000000
        -0.536321      4.369848      0.000000
        -0.574881     -2.028526      5.399564
 AtomData:  id type       cartes_x      cartes_y      cartes_z           fx          fy          fz
             1    0       0.393313      2.352276      2.793966     0.000004   -0.000029    0.000070
             2    0       0.354218      3.584642      1.689182    -0.000002    0.000010    0.000008
             3    0       1.424915     -0.287783      3.374821     0.000017   -0.000001   -0.000043
             4    0       1.463294      3.450477      0.265995     0.000013   -0.000033   -0.000032
             5    0       0.922836      0.519330      0.629567    -0.000017    0.000057   -0.000022
             6    0       1.441267     -1.682807      4.479333     0.000019   -0.000074   -0.000022
             7    0       0.356205     -0.234360      4.935603    -0.000019   -0.000016   -0.000032
             8    0       1.440960      2.044607      1.349559    -0.000032    0.000007   -0.000016
             9    0       0.327692      1.030639      3.870271    -0.000006    0.000011    0.000038
            10    0       5.763734      2.440693      0.252331    -0.000055   -0.000042    0.000007
            11    0       5.268374      1.634286      4.584928     0.000012    0.000024   -0.000040
            12    0       6.883744     -0.217549      0.856039     0.000022    0.000038    0.000022
            13    0       6.305216      1.480069      3.130034    -0.000021   -0.000010    0.000054
            14    0       5.237014      2.920403      3.504302     0.000020   -0.000002   -0.000050
            15    0       6.331675      2.767546      1.972254    -0.000006    0.000053   -0.000037
            16    0       5.758746     -0.163480      2.460397    -0.000007   -0.000009    0.000011
            17    0       6.317988      0.111879      4.260740     0.000008    0.000023    0.000005
            18    0       5.829505      1.109856      1.336725    -0.000013   -0.000075    0.000035
            19    0       2.535195      2.231760      5.277543    -0.000011    0.000041   -0.000015
            20    0       3.584437      0.913737      4.821837    -0.000009    0.000037    0.000025
            21    0       4.126071      0.292606      1.704174     0.000057    0.000005   -0.000005
            22    0       3.080168      1.716753      2.061513    -0.000005   -0.000046    0.000026
            23    0       4.200397      1.545205      0.520453     0.000049   -0.000014   -0.000029
            24    0       3.053586      3.005506      1.022923    -0.000023   -0.000057   -0.000021
            25    0       3.618833      3.269266      2.802053     0.000067    0.000041    0.000067
            26    0       3.076211      0.420471      3.137073    -0.000056    0.000020    0.000014
            27    0       3.047267     -0.783955      4.226890    -0.000010    0.000039   -0.000017
 Energy
       -175.609604247003
 PlusStress:  xx          yy          zz          yz          xz          xy
        -0.00036     0.00009     0.00002    -0.00006    -0.00004    -0.00005
 Feature   EFS_by	MTP778
 Feature   MV_grade	2.493941
 Feature   TS_index	10
 Feature   from	relaxation_OK
 Feature   min_dist	1.624290
 Feature   number	10
 Feature   selected_eqn_inds	0
END_CFG

