BEGIN_CFG
 Size
    27
 Supercell
         5.593760      0.000000      0.000000
        -0.164466      5.639197      0.000000
        -1.570215      0.112233      6.711409
 AtomData:  id type       cartes_x      cartes_y      cartes_z           fx          fy          fz
             1    0      -0.245976      4.457446      2.617091     0.000000    0.000000    0.000000
             2    0      -0.176418      4.186062      4.345024     0.000000    0.000000    0.000000
             3    0       0.472489      3.834418      1.003545     0.000000    0.000000    0.000000
             4    0       1.554573      2.659878      1.841245     0.000000    0.000000    0.000000
             5    0       0.487833      1.355371      4.295312     0.000000    0.000000    0.000000
             6    0       0.484839      5.528832      5.284801     0.000000    0.000000    0.000000
             7    0       0.464691      2.832782      5.266927     0.000000    0.000000    0.000000
             8    0       0.880724      5.423640      3.600659     0.000000    0.000000    0.000000
             9    0       0.579596      1.352076      2.561486     0.000000    0.000000    0.000000
            10    0      -0.522734      1.383614      5.891960     0.000000    0.000000    0.000000
            11    0       1.351353      1.110506      1.027640     0.000000    0.000000    0.000000
            12    0       1.077945      5.294603      0.070212     0.000000    0.000000    0.000000
            13    0       1.647098      2.604973      0.192121     0.000000    0.000000    0.000000
            14    0       2.326928      5.442257      1.367274     0.000000    0.000000    0.000000
            15    0       3.371682      4.585411      6.595702     0.000000    0.000000    0.000000
            16    0       4.823765      2.740249      0.260565     0.000000    0.000000    0.000000
            17    0       3.899418      5.638338      0.683645     0.000000    0.000000    0.000000
            18    0       3.268282      1.705354      5.556096     0.000000    0.000000    0.000000
            19    0       2.305223      5.714998      5.748262     0.000000    0.000000    0.000000
            20    0       2.431311      4.975056      3.062687     0.000000    0.000000    0.000000
            21    0       4.791172      1.397659      1.445697     0.000000    0.000000    0.000000
            22    0       3.904993      4.107183      3.483384     0.000000    0.000000    0.000000
            23    0       3.539118      2.408974      3.983114     0.000000    0.000000    0.000000
            24    0       4.576637      1.427551      3.125400     0.000000    0.000000    0.000000
            25    0       2.412364      3.265581      3.157104     0.000000    0.000000    0.000000
            26    0       1.955485      2.394960      4.601731     0.000000    0.000000    0.000000
            27    0       3.858773      5.575931      2.364628     0.000000    0.000000    0.000000
 Energy
          0.000000000000
 PlusStress:  xx          yy          zz          yz          xz          xy
        -0.00000    -0.00000    -0.00000    -0.00000    -0.00000    -0.00000
 Feature   EFS_by	MTP10
 Feature   MV_grade	7.170552
 Feature   from	database:B.cfgs
 Feature   min_dist	1.638792
 Feature   number	1
END_CFG

BEGIN_CFG
 Size
    27
 Supercell
         8.090200      0.000000      0.000000
         0.098489      6.109798      0.000000
        -0.875805     -0.264757      4.181665
 AtomData:  id type       cartes_x      cartes_y      cartes_z           fx          fy          fz
             1    0       0.416584      3.638839      0.433347     0.000000    0.000000    0.000000
             2    0      -0.093083      1.370760      2.561370     0.000000    0.000000    0.000000
             3    0       0.255347      5.361961      0.206709     0.000000    0.000000    0.000000
             4    0       0.253668      5.793156      3.096787     0.000000    0.000000    0.000000
             5    0       7.498262     -0.024822      1.600359     0.000000    0.000000    0.000000
             6    0       0.829893      4.718360      1.771865     0.000000    0.000000    0.000000
             7    0       0.723310      2.522302      3.658152     0.000000    0.000000    0.000000
             8    0       1.919048      3.700397      2.951884     0.000000    0.000000    0.000000
             9    0       1.320702      0.885995      3.412312     0.000000    0.000000    0.000000
            10    0       5.696446      0.292796      1.323853     0.000000    0.000000    0.000000
            11    0       3.616367      3.098202      0.278961     0.000000    0.000000    0.000000
            12    0       3.588933      4.851522      0.096478     0.000000    0.000000    0.000000
            13    0       4.083744      5.799643      1.506857     0.000000    0.000000    0.000000
            14    0       3.121569      2.734562      2.007630     0.000000    0.000000    0.000000
            15    0       2.029395      5.443824      2.919232     0.000000    0.000000    0.000000
            16    0       4.237753      4.069957      1.509146     0.000000    0.000000    0.000000
            17    0       6.163269      3.988710      3.676444     0.000000    0.000000    0.000000
            18    0       6.879214      2.960234      0.667563     0.000000    0.000000    0.000000
            19    0       5.449843      2.361142      3.203815     0.000000    0.000000    0.000000
            20    0       5.778389      5.617938      4.101766     0.000000    0.000000    0.000000
            21    0       5.392717      5.113723      2.435416     0.000000    0.000000    0.000000
            22    0       5.891239      3.527618      2.005953     0.000000    0.000000    0.000000
            23    0       2.840043      0.857076      2.237334     0.000000    0.000000    0.000000
            24    0       5.951795      1.435930      0.112431     0.000000    0.000000    0.000000
            25    0       6.425274      1.823755      1.871185     0.000000    0.000000    0.000000
            26    0       3.764449      1.853389      3.387753     0.000000    0.000000    0.000000
            27    0       2.501124      1.811831      0.744622     0.000000    0.000000    0.000000
 Energy
          0.000000000000
 PlusStress:  xx          yy          zz          yz          xz          xy
        -0.00000    -0.00000    -0.00000    -0.00000    -0.00000    -0.00000
 Feature   EFS_by	MTP10
 Feature   MV_grade	6.261404
 Feature   from	database:B_reordered.cfgs
 Feature   min_dist	1.656655
 Feature   number	2
END_CFG

BEGIN_CFG
 Size
    27
 Supercell
         8.090200      0.000000      0.000000
         0.098489      6.109798      0.000000
        -0.875805     -0.264757      4.181665
 AtomData:  id type       cartes_x      cartes_y      cartes_z           fx          fy          fz
             1    0       0.416584      3.638839      0.433347     0.000000    0.000000    0.000000
             2    0      -0.093083      1.370760      2.561370     0.000000    0.000000    0.000000
             3    0       0.255347      5.361961      0.206709     0.000000    0.000000    0.000000
             4    0       0.253668      5.793156      3.096787     0.000000    0.000000    0.000000
             5    0       7.498262     -0.024822      1.600359     0.000000    0.000000    0.000000
             6    0       0.829893      4.718360      1.771865     0.000000    0.000000    0.000000
             7    0       0.723310      2.522302      3.658152     0.000000    0.000000    0.000000
             8    0       1.919048      3.700397      2.951884     0.000000    0.000000    0.000000
             9    0       1.320702      0.885995      3.412312     0.000000    0.000000    0.000000
            10    0       5.696446      0.292796      1.323853     0.000000    0.000000    0.000000
            11    0       3.616367      3.098202      0.278961     0.000000    0.000000    0.000000
            12    0       3.588933      4.851522      0.096478     0.000000    0.000000    0.000000
            13    0       4.083744      5.799643      1.506857     0.000000    0.000000    0.000000
            14    0       3.121569      2.734562      2.007630     0.000000    0.000000    0.000000
            15    0       2.029395      5.443824      2.919232     0.000000    0.000000    0.000000
            16    0       4.237753      4.069957      1.509146     0.000000    0.000000    0.000000
            17    0       6.163269      3.988710      3.676444     0.000000    0.000000    0.000000
            18    0       6.879214      2.960234      0.667563     0.000000    0.000000    0.000000
            19    0       5.449843      2.361142      3.203815     0.000000    0.000000    0.000000
            20    0       5.778389      5.617938      4.101766     0.000000    0.000000    0.000000
            21    0       5.392717      5.113723      2.435416     0.000000    0.000000    0.000000
            22    0       5.891239      3.527618      2.005953     0.000000    0.000000    0.000000
            23    0       2.840043      0.857076      2.237334     0.000000    0.000000    0.000000
            24    0       5.951795      1.435930      0.112431     0.000000    0.000000    0.000000
            25    0       6.425274      1.823755      1.871185     0.000000    0.000000    0.000000
            26    0       3.764449      1.853389      3.387753     0.000000    0.000000    0.000000
            27    0       2.501124      1.811831      0.744622     0.000000    0.000000    0.000000
 Energy
          0.000000000000
 PlusStress:  xx          yy          zz          yz          xz          xy
        -0.00000    -0.00000    -0.00000    -0.00000    -0.00000    -0.00000
 Feature   EFS_by	MTP10
 Feature   MV_grade	6.261404
 Feature   from	database:B_reordered.cfgs
 Feature   min_dist	1.656655
 Feature   number	2
END_CFG

BEGIN_CFG
 Size
    27
 Supercell
         5.593760      0.000000      0.000000
        -0.164466      5.639197      0.000000
        -1.570215      0.112233      6.711409
 AtomData:  id type       cartes_x      cartes_y      cartes_z           fx          fy          fz
             1    0      -0.245976      4.457446      2.617091     0.000000    0.000000    0.000000
             2    0      -0.176418      4.186062      4.345024     0.000000    0.000000    0.000000
             3    0       0.472489      3.834418      1.003545     0.000000    0.000000    0.000000
             4    0       1.554573      2.659878      1.841245     0.000000    0.000000    0.000000
             5    0       0.487833      1.355371      4.295312     0.000000    0.000000    0.000000
             6    0       0.484839      5.528832      5.284801     0.000000    0.000000    0.000000
             7    0       0.464691      2.832782      5.266927     0.000000    0.000000    0.000000
             8    0       0.880724      5.423640      3.600659     0.000000    0.000000    0.000000
             9    0       0.579596      1.352076      2.561486     0.000000    0.000000    0.000000
            10    0      -0.522734      1.383614      5.891960     0.000000    0.000000    0.000000
            11    0       1.351353      1.110506      1.027640     0.000000    0.000000    0.000000
            12    0       1.077945      5.294603      0.070212     0.000000    0.000000    0.000000
            13    0       1.647098      2.604973      0.192121     0.000000    0.000000    0.000000
            14    0       2.326928      5.442257      1.367274     0.000000    0.000000    0.000000
            15    0       3.371682      4.585411      6.595702     0.000000    0.000000    0.000000
            16    0       4.823765      2.740249      0.260565     0.000000    0.000000    0.000000
            17    0       3.899418      5.638338      0.683645     0.000000    0.000000    0.000000
            18    0       3.268282      1.705354      5.556096     0.000000    0.000000    0.000000
            19    0       2.305223      5.714998      5.748262     0.000000    0.000000    0.000000
            20    0       2.431311      4.975056      3.062687     0.000000    0.000000    0.000000
            21    0       4.791172      1.397659      1.445697     0.000000    0.000000    0.000000
            22    0       3.904993      4.107183      3.483384     0.000000    0.000000    0.000000
            23    0       3.539118      2.408974      3.983114     0.000000    0.000000    0.000000
            24    0       4.576637      1.427551      3.125400     0.000000    0.000000    0.000000
            25    0       2.412364      3.265581      3.157104     0.000000    0.000000    0.000000
            26    0       1.955485      2.394960      4.601731     0.000000    0.000000    0.000000
            27    0       3.858773      5.575931      2.364628     0.000000    0.000000    0.000000
 Energy
          0.000000000000
 PlusStress:  xx          yy          zz          yz          xz          xy
        -0.00000    -0.00000    -0.00000    -0.00000    -0.00000    -0.00000
 Feature   EFS_by	MTP10
 Feature   MV_grade	7.170552
 Feature   from	database:B_reordered.cfgs
 Feature   min_dist	1.638792
 Feature   number	1
END_CFG

BEGIN_CFG
 Size
    27
 Supercell
         8.466188      0.000000      0.000000
         1.032783      4.830381      0.000000
        -0.062001     -0.021419      4.896140
 AtomData:  id type       cartes_x      cartes_y      cartes_z           fx          fy          fz
             1    0       4.013951      1.655927      0.906256     0.000000    0.000000    0.000000
             2    0       5.560797      2.096649      1.677956     0.000000    0.000000    0.000000
             3    0       9.064085      4.686080      1.649512     0.000000    0.000000    0.000000
             4    0       1.256805      2.864830      4.177928     0.000000    0.000000    0.000000
             5    0       6.118156      3.676718      1.850929     0.000000    0.000000    0.000000
             6    0       3.434153      4.157504      4.761564     0.000000    0.000000    0.000000
             7    0       1.289169      2.188789      0.843171     0.000000    0.000000    0.000000
             8    0       8.360255      1.605868      1.678747     0.000000    0.000000    0.000000
             9    0       1.904734      3.774982      0.769892     0.000000    0.000000    0.000000
            10    0       3.291595      4.214589      1.718838     0.000000    0.000000    0.000000
            11    0       4.750846      4.769707      0.931259     0.000000    0.000000    0.000000
            12    0       5.164256      0.517162      1.700305     0.000000    0.000000    0.000000
            13    0       6.849955      1.000890      0.862889     0.000000    0.000000    0.000000
            14    0       2.731243      2.520861      1.754313     0.000000    0.000000    0.000000
            15    0       0.318462      0.596744      3.055364     0.000000    0.000000    0.000000
            16    0       3.536442      0.721366      4.180286     0.000000    0.000000    0.000000
            17    0       8.707737      4.057300      3.334090     0.000000    0.000000    0.000000
            18    0       5.965015      4.564794      3.455473     0.000000    0.000000    0.000000
            19    0       2.558615      1.990365      3.360777     0.000000    0.000000    0.000000
            20    0       2.052536      0.283339      3.274226     0.000000    0.000000    0.000000
            21    0       5.566958      2.914083      3.420884     0.000000    0.000000    0.000000
            22    0       6.814512      1.864429      4.206250     0.000000    0.000000    0.000000
            23    0       5.446571      1.287137      3.289428     0.000000    0.000000    0.000000
            24    0       4.026236      2.459620      4.211010     0.000000    0.000000    0.000000
            25    0       6.477131      0.199168      4.202477     0.000000    0.000000    0.000000
            26    0       8.271202      2.297716      3.346234     0.000000    0.000000    0.000000
            27    0       7.950112      3.318394      1.926232     0.000000    0.000000    0.000000
 Energy
          0.000000000000
 PlusStress:  xx          yy          zz          yz          xz          xy
        -0.00000    -0.00000    -0.00000    -0.00000    -0.00000    -0.00000
 Feature   EFS_by	MTP10
 Feature   MV_grade	5.013836
 Feature   from	database:B_reordered.cfgs
 Feature   min_dist	1.628656
 Feature   number	3
END_CFG

BEGIN_CFG
 Size
    27
 Supercell
         8.488198      0.000000      0.000000
         0.911614      4.849067      0.000000
         0.898614     -1.826723      4.834516
 AtomData:  id type       cartes_x      cartes_y      cartes_z           fx          fy          fz
             1    0       3.433374      0.880252      1.098977     0.000000    0.000000    0.000000
             2    0       2.980871     -1.160301      4.750060     0.000000    0.000000    0.000000
             3    0       2.866702      3.772481      0.557814     0.000000    0.000000    0.000000
             4    0       1.288461      3.209507      1.085764     0.000000    0.000000    0.000000
             5    0       2.767432     -0.206895      3.369993     0.000000    0.000000    0.000000
             6    0       4.201417      4.066523      1.660937     0.000000    0.000000    0.000000
             7    0       2.890469      1.576309      2.627890     0.000000    0.000000    0.000000
             8    0       4.191490      2.972560      2.944716     0.000000    0.000000    0.000000
             9    0       1.398315      0.838232      3.237850     0.000000    0.000000    0.000000
            10    0       1.605788      0.013734      4.811511     0.000000    0.000000    0.000000
            11    0       1.465057      2.451199      2.649158     0.000000    0.000000    0.000000
            12    0       4.937323     -0.058123      1.463370     0.000000    0.000000    0.000000
            13    0       5.545605      0.365910      3.309251     0.000000    0.000000    0.000000
            14    0       5.592251      2.928569      1.534802     0.000000    0.000000    0.000000
            15    0       5.761098      2.136554      3.101680     0.000000    0.000000    0.000000
            16    0       6.257299      0.411558      0.349663     0.000000    0.000000    0.000000
            17    0       7.059031     -0.484218      3.681048     0.000000    0.000000    0.000000
            18    0       8.503722      0.482154      4.187034     0.000000    0.000000    0.000000
            19    0       8.520348      4.352302      0.905494     0.000000    0.000000    0.000000
            20    0       7.095064      1.264215      3.618547     0.000000    0.000000    0.000000
            21    0       7.772583      1.199259      0.806663     0.000000    0.000000    0.000000
            22    0       7.206503      2.260347      2.129679     0.000000    0.000000    0.000000
            23    0       8.558258      3.385949      2.372165     0.000000    0.000000    0.000000
            24    0       6.875569      3.601626      0.443038     0.000000    0.000000    0.000000
            25    0       4.204349      1.518776      3.766096     0.000000    0.000000    0.000000
            26    0       4.338869      0.079079      4.598731     0.000000    0.000000    0.000000
            27    0       4.954167      1.503319      0.501390     0.000000    0.000000    0.000000
 Energy
          0.000000000000
 PlusStress:  xx          yy          zz          yz          xz          xy
        -0.00000    -0.00000    -0.00000    -0.00000    -0.00000    -0.00000
 Feature   EFS_by	MTP10
 Feature   MV_grade	4.607181
 Feature   from	database:B_reordered.cfgs
 Feature   min_dist	1.668563
 Feature   number	4
END_CFG

BEGIN_CFG
 Size
    27
 Supercell
         6.510182      0.000000      0.000000
        -0.235257      5.826595      0.000000
        -1.730554     -0.402989      5.626708
 AtomData:  id type       cartes_x      cartes_y      cartes_z           fx          fy          fz
             1    0       3.430493      3.900693      2.148062     0.000000    0.000000    0.000000
             2    0       1.451700      0.091852      2.188699     0.000000    0.000000    0.000000
             3    0       1.263946      1.845487      1.913666     0.000000    0.000000    0.000000
             4    0       2.292724      2.829992      2.904742     0.000000    0.000000    0.000000
             5    0       1.288071      0.950299      5.133187     0.000000    0.000000    0.000000
             6    0       1.553512      1.947875      0.126316     0.000000    0.000000    0.000000
             7    0       2.171786      2.362707      4.580767     0.000000    0.000000    0.000000
             8    0       4.623406      1.189288      2.578388     0.000000    0.000000    0.000000
             9    0       3.894261      0.176020      3.839973     0.000000    0.000000    0.000000
            10    0       3.870985      0.659920      0.897491     0.000000    0.000000    0.000000
            11    0       5.187345      3.996109      2.407018     0.000000    0.000000    0.000000
            12    0       3.568671      1.872597      3.705716     0.000000    0.000000    0.000000
            13    0       3.153379      1.030371      5.206119     0.000000    0.000000    0.000000
            14    0       1.414296      3.804908      4.103333     0.000000    0.000000    0.000000
            15    0      -0.522043      2.398928      2.231544     0.000000    0.000000    0.000000
            16    0      -0.012867      2.239233      0.600439     0.000000    0.000000    0.000000
            17    0      -0.383952      3.879844      0.961072     0.000000    0.000000    0.000000
            18    0       5.476468      0.979149      1.126606     0.000000    0.000000    0.000000
            19    0      -1.007403      3.043417      5.329649     0.000000    0.000000    0.000000
            20    0       5.237481      5.447019      3.381134     0.000000    0.000000    0.000000
            21    0       0.896340      5.430321      3.868271     0.000000    0.000000    0.000000
            22    0      -0.334215      4.156381      4.240273     0.000000    0.000000    0.000000
            23    0      -0.225078      0.030404      4.875362     0.000000    0.000000    0.000000
            24    0       2.413387      4.945253      3.152669     0.000000    0.000000    0.000000
            25    0       2.605066      5.175132      1.390182     0.000000    0.000000    0.000000
            26    0      -0.397614      5.393324      1.643715     0.000000    0.000000    0.000000
            27    0       1.008848      4.992677      0.602664     0.000000    0.000000    0.000000
 Energy
          0.000000000000
 PlusStress:  xx          yy          zz          yz          xz          xy
        -0.00000    -0.00000    -0.00000    -0.00000    -0.00000    -0.00000
 Feature   EFS_by	MTP10
 Feature   MV_grade	7.155300
 Feature   from	database:B_reordered.cfgs
 Feature   min_dist	1.652870
 Feature   number	5
END_CFG

BEGIN_CFG
 Size
    27
 Supercell
         8.580840      0.000000      0.000000
        -0.263555      4.379550      0.000000
        -1.817405     -2.117959      5.053761
 AtomData:  id type       cartes_x      cartes_y      cartes_z           fx          fy          fz
             1    0       3.721629      2.635946      0.761346     0.000000    0.000000    0.000000
             2    0       2.146881      1.828426      4.827316     0.000000    0.000000    0.000000
             3    0       4.508965     -0.095510      1.525695     0.000000    0.000000    0.000000
             4    0       3.492644      1.644846      3.638368     0.000000    0.000000    0.000000
             5    0       2.753139     -1.240793      3.804922     0.000000    0.000000    0.000000
             6    0       3.987924      2.901298      2.542219     0.000000    0.000000    0.000000
             7    0       3.158616      0.017567      2.812688     0.000000    0.000000    0.000000
             8    0       3.283150      0.283575      4.689235     0.000000    0.000000    0.000000
             9    0       3.391947      1.322319      1.793492     0.000000    0.000000    0.000000
            10    0      -0.320747     -1.820050      4.939622     0.000000    0.000000    0.000000
            11    0       0.484248      1.128259      4.681325     0.000000    0.000000    0.000000
            12    0       1.594404      0.590526      1.705323     0.000000    0.000000    0.000000
            13    0       0.597593      2.076632      1.864862     0.000000    0.000000    0.000000
            14    0       2.123869      1.837448      0.646329     0.000000    0.000000    0.000000
            15    0       0.918900      3.338830      0.851430     0.000000    0.000000    0.000000
            16    0       1.365845     -0.796418      2.712898     0.000000    0.000000    0.000000
            17    0       0.257402      0.781143      2.907078     0.000000    0.000000    0.000000
            18    0       0.006488     -0.524839      3.898840     0.000000    0.000000    0.000000
            19    0       5.193922      2.364674      3.723140     0.000000    0.000000    0.000000
            20    0       7.200492      0.100837      2.913533     0.000000    0.000000    0.000000
            21    0       6.222253      0.361984      1.532521     0.000000    0.000000    0.000000
            22    0       4.838464      1.296057      4.978811     0.000000    0.000000    0.000000
            23    0       6.364786      2.066123      0.930934     0.000000    0.000000    0.000000
            24    0       5.918610      3.149401      2.393737     0.000000    0.000000    0.000000
            25    0       7.353161      0.750088      0.290911     0.000000    0.000000    0.000000
            26    0       8.023579      2.349384      0.390588     0.000000    0.000000    0.000000
            27    0       6.819750     -1.022444      4.126655     0.000000    0.000000    0.000000
 Energy
          0.000000000000
 PlusStress:  xx          yy          zz          yz          xz          xy
        -0.00000    -0.00000    -0.00000    -0.00000    -0.00000    -0.00000
 Feature   EFS_by	MTP10
 Feature   MV_grade	2.980897
 Feature   from	database:B_reordered.cfgs
 Feature   min_dist	1.650281
 Feature   number	6
END_CFG

BEGIN_CFG
 Size
    27
 Supercell
         8.135755      0.000000      0.000000
        -0.354214      4.985440      0.000000
        -0.121586     -0.591051      5.378884
 AtomData:  id type       cartes_x      cartes_y      cartes_z           fx          fy          fz
             1    0       0.767103     -0.116688      4.320104     0.000000    0.000000    0.000000
             2    0       1.156472      2.679904      3.186189     0.000000    0.000000    0.000000
             3    0       1.914349      2.334110      4.708563     0.000000    0.000000    0.000000
             4    0       0.488960      1.834904      1.738108     0.000000    0.000000    0.000000
             5    0       1.777610      4.017889      2.157439     0.000000    0.000000    0.000000
             6    0       0.291267      3.124315      4.672074     0.000000    0.000000    0.000000
             7    0       1.188614      3.145600      0.745796     0.000000    0.000000    0.000000
             8    0       0.888100      0.286196      2.590127     0.000000    0.000000    0.000000
             9    0       1.359603      1.508580      0.188272     0.000000    0.000000    0.000000
            10    0       2.835066      2.829808      3.268845     0.000000    0.000000    0.000000
            11    0       5.084944     -0.272048      4.990612     0.000000    0.000000    0.000000
            12    0       6.179675      4.617157      0.540027     0.000000    0.000000    0.000000
            13    0       4.171949      2.480177      0.779727     0.000000    0.000000    0.000000
            14    0       5.845481      2.937665      0.910865     0.000000    0.000000    0.000000
            15    0       7.487031      0.527430      1.705381     0.000000    0.000000    0.000000
            16    0       4.292252      2.106855      3.511210     0.000000    0.000000    0.000000
            17    0       3.757126     -0.233978      2.230383     0.000000    0.000000    0.000000
            18    0       5.137397      1.448230      4.847947     0.000000    0.000000    0.000000
            19    0       2.900707      3.716931      0.789063     0.000000    0.000000    0.000000
            20    0       4.346389      3.866391      3.504581     0.000000    0.000000    0.000000
            21    0       6.019004      4.116976      4.066196     0.000000    0.000000    0.000000
            22    0       6.811859      2.075385      2.040548     0.000000    0.000000    0.000000
            23    0       5.890176      2.509068      3.435525     0.000000    0.000000    0.000000
            24    0       4.533366      4.215455      1.014216     0.000000    0.000000    0.000000
            25    0       6.726814      2.688999      4.906407     0.000000    0.000000    0.000000
            26    0       7.523752      0.027417      3.328758     0.000000    0.000000    0.000000
            27    0       3.562347      1.520853      2.129246     0.000000    0.000000    0.000000
 Energy
          0.000000000000
 PlusStress:  xx          yy          zz          yz          xz          xy
        -0.00000    -0.00000    -0.00000    -0.00000    -0.00000    -0.00000
 Feature   EFS_by	MTP10
 Feature   MV_grade	8.268346
 Feature   from	database:B_reordered.cfgs
 Feature   min_dist	1.634058
 Feature   number	7
END_CFG

BEGIN_CFG
 Size
    27
 Supercell
         5.912222      0.000000      0.000000
        -0.790000      6.248561      0.000000
         1.131873     -1.053342      5.356237