BEGIN_CFG
 Size
    19
 Supercell
         4.972340      0.000000      0.000000
        -0.605522      6.780640      0.000000
         2.202480     -0.249791      4.278750
 AtomData:  id type       cartes_x      cartes_y      cartes_z           fx          fy          fz
             1    0       1.969740      1.545810      0.894680    -0.319736   -0.177631   -0.181601
             2    0       4.390770      0.560900      2.357210     0.481881   -0.754534    0.076613
             3    0       5.241960      1.662820      0.998210     0.596573   -0.001184    1.231145
             4    0       2.732050      0.415020      2.031350    -0.899225   -0.451150   -0.044789
             5    0       3.736290      4.251620      2.078490    -0.077918    0.682531   -0.149353
             6    0       2.054470      4.251450      2.279020    -0.036061   -0.169596   -0.322012
             7    0       4.583610      5.764670      2.619850    -0.146562   -0.494867   -0.642848
             8    0       1.192440      5.760850      1.891370     0.517105   -0.088028    0.439509
             9    0       4.717760      3.472030      0.858040     0.183232   -0.394503   -0.779716
            10    0       1.282880      4.447630      0.704710     0.176670    0.096412   -0.237296
            11    0       1.188090      2.957640      1.600740     1.057167   -0.112036   -0.339044
            12    0       4.689820      5.235530      0.897030    -0.596194    0.144529   -0.137625
            13    0       3.654290      1.016880      0.773120    -0.615626    0.671633    0.172614
            14    0       4.955680      1.607100      3.660340     0.835911    0.235054   -0.135614
            15    0       6.673230      1.849250      3.911480    -0.941111    0.385723   -0.990223
            16    0       3.291630      1.128720      3.612540    -0.025227   -0.085861    0.324566
            17    0       4.445060      4.269660      3.626050     0.165329    0.339855    0.350129
            18    0       5.912610      3.270440      3.324850    -0.348199    0.116729    0.620736
            19    0       6.010590      5.076530      3.555850    -0.008007    0.056924    0.744809
 Energy
       -122.148747110000
 PlusStress:  xx          yy          zz          yz          xz          xy
         5.37409    -3.31447     3.22915    -0.58301     0.95960     1.12023
 Feature   EFS_by	VASP
 Feature   MV_grade	1.000024
 Feature   from	database:Selected.cfgs
 Feature   min_dist	1.627751
 Feature   number	3701
END_CFG

BEGIN_CFG
 Size
    108
 Supercell
         9.367160      0.000000      0.000000
         0.000001      9.367160      0.000000
         0.000000      0.000000      9.367160
 AtomData:  id type       cartes_x      cartes_y      cartes_z           fx          fy          fz
             1    0       6.147830      2.921240      0.870510    -0.060017   -0.107601   -1.113527
             2    0       6.147830      6.445910      8.496650    -0.060073    0.107700    1.113484
             3    0       3.219330      2.921250      8.496650     0.059994   -0.107683    1.113524
             4    0       3.219330      6.445910      0.870510     0.060028    0.107676   -1.113503
             5    0       2.921240      0.870510      6.147830    -0.107503   -1.113437   -0.060144
             6    0       2.921250      8.496650      3.219330    -0.107576    1.113493    0.060060
             7    0       6.445910      0.870510      3.219330     0.107563   -1.113511    0.060088
             8    0       6.445910      8.496650      6.147820     0.107554    1.113546   -0.059885
             9    0       0.870510      6.147830      2.921240    -1.113385   -0.060148   -0.107600
            10    0       0.870510      3.219330      6.445910    -1.113372    0.060131    0.107669
            11    0       8.496650      6.147830      6.445910     1.113422   -0.060146    0.107688
            12    0       8.496650      3.219330      2.921240     1.113449    0.060078   -0.107586
            13    0       7.902910      1.762330      3.813070     0.060109    0.107605    1.113462
            14    0       7.902910      7.604820      5.554090     0.060083   -0.107512   -1.113546
            15    0       1.464250      1.762330      5.554090    -0.060129    0.107599   -1.113491
            16    0       1.464250      7.604820      3.813070    -0.060066   -0.107536    1.113497
            17    0       1.762330      3.813070      7.902910     0.107695    1.113511    0.060022
            18    0       1.762330      5.554090      1.464250     0.107701   -1.113528   -0.060057
            19    0       7.604820      3.813070      1.464250    -0.107649    1.113527   -0.060042
            20    0       7.604820      5.554090      7.902910    -0.107610   -1.113556    0.059998
            21    0       3.813070      7.902910      1.762330     1.113598    0.059972    0.107590
            22    0       3.813070      1.464250      7.604820     1.113596   -0.059975   -0.107530
            23    0       5.554090      7.902910      7.604820    -1.113603    0.059986   -0.107533
            24    0       5.554090      1.464250      1.762330    -1.113608   -0.060014    0.107604
            25    0       5.595370      0.000000      4.683580    -1.135632   -0.000036   -0.000025
            26    0       3.771790      0.000000      4.683580     1.135620    0.000014   -0.000022
            27    0       0.000000      4.683580      5.595370    -0.000018   -0.000005   -1.135566
            28    0       9.367160      4.683580      3.771790    -0.000008   -0.000012    1.135486
            29    0       4.683580      5.595370      0.000000    -0.000002   -1.135736   -0.000034
            30    0       4.683580      3.771790      0.000000    -0.000004    1.135690    0.000002
            31    0       8.455370      4.683580      0.000000     1.135553   -0.000004   -0.000012
            32    0       0.911790      4.683580      0.000000    -1.135598   -0.000006   -0.000011
            33    0       4.683580      0.000000      8.455370    -0.000004   -0.000024    1.135610
            34    0       4.683580      0.000000      0.911790     0.000006   -0.000004   -1.135667
            35    0       0.000000      8.455370      4.683580    -0.000009    1.135467    0.000013
            36    0       9.367160      0.911790      4.683580    -0.000000   -1.135492    0.000001
            37    0       9.367160      1.692780      6.437200    -0.000005    0.184157    0.690417
            38    0       0.000000      7.674380      2.929960    -0.000056   -0.184172   -0.690404
            39    0       0.000000      1.692780      2.929960    -0.000042    0.184150   -0.690438
            40    0       0.000000      7.674380      6.437200    -0.000017   -0.184211    0.690335
            41    0       1.692780      6.437200      0.000000     0.183901    0.690858   -0.000004
            42    0       1.692780      2.929960      0.000000     0.183882   -0.690881    0.000004
            43    0       7.674380      6.437200      0.000000    -0.183893    0.690861   -0.000005
            44    0       7.674380      2.929960      0.000000    -0.183884   -0.690860   -0.000007
            45    0       6.437200      0.000000      1.692780     0.690747   -0.000037    0.184001
            46    0       6.437200      0.000000      7.674380     0.690743   -0.000084   -0.184057
            47    0       2.929960      0.000000      7.674370    -0.690777    0.000003   -0.183838
            48    0       2.929960      0.000000      1.692780    -0.690779    0.000002    0.184000
            49    0       4.683580      2.990800      7.613540    -0.000025   -0.183908   -0.690929
            50    0       4.683580      6.376360      1.753620    -0.000004    0.183898    0.690924
            51    0       4.683580      2.990800      1.753620     0.000005   -0.183907    0.690906
            52    0       4.683580      6.376360      7.613530    -0.000009    0.183960   -0.690720
            53    0       2.990800      7.613540      4.683580    -0.184197   -0.690469   -0.000011
            54    0       2.990800      1.753620      4.683580    -0.184188    0.690446    0.000008
            55    0       6.376360      7.613530      4.683580     0.184231   -0.690318   -0.000058
            56    0       6.376360      1.753620      4.683580     0.184161    0.690501    0.000002
            57    0       7.613540      4.683580      2.990800    -0.690563   -0.000005   -0.184072
            58    0       7.613540      4.683580      6.376360    -0.690563   -0.000002    0.184081
            59    0       1.753620      4.683580      6.376360     0.690574   -0.000011    0.184049
            60    0       1.753620      4.683580      2.990800     0.690542    0.000017   -0.184078
            61    0       7.604820      3.813070      7.902910    -0.107626    1.113524    0.060010
            62    0       7.604820      5.554090      1.464250    -0.107634   -1.113555   -0.060032
            63    0       1.762330      3.813070      1.464250     0.107724    1.113506   -0.060064
            64    0       1.762330      5.554090      7.902910     0.107690   -1.113532    0.060018
            65    0       3.813070      7.902910      7.604820     1.113624    0.059962   -0.107504
            66    0       3.813070      1.464250      1.762330     1.113578   -0.060021    0.107620
            67    0       5.554090      7.902910      1.762330    -1.113576    0.059987    0.107602
            68    0       5.554090      1.464250      7.604820    -1.113635   -0.059990   -0.107529
            69    0       7.902910      7.604830      3.813070     0.060152   -0.107630    1.113451
            70    0       7.902910      1.762330      5.554090     0.060080    0.107581   -1.113494
            71    0       1.464250      7.604820      5.554090    -0.060060   -0.107518   -1.113537
            72    0       1.464250      1.762330      3.813070    -0.060121    0.107606    1.113479
            73    0       6.445910      0.870510      6.147830     0.107592   -1.113478   -0.060143
            74    0       6.445920      8.496650      3.219330     0.107472    1.113503    0.060045
            75    0       2.921240      0.870510      3.219330    -0.107470   -1.113530    0.060029
            76    0       2.921250      8.496650      6.147830    -0.107605    1.113450   -0.060149
            77    0       0.870510      6.147830      6.445910    -1.113432   -0.060152    0.107674
            78    0       0.870510      3.219330      2.921240    -1.113467    0.060090   -0.107576
            79    0       8.496650      6.147830      2.921240     1.113431   -0.060079   -0.107590
            80    0       8.496650      3.219330      6.445910     1.113392    0.060113    0.107668
            81    0       6.147830      6.445910      0.870510    -0.060054    0.107692   -1.113526
            82    0       6.147830      2.921240      8.496650    -0.059995   -0.107617    1.113535
            83    0       3.219330      6.445910      8.496650     0.060041    0.107679    1.113480
            84    0       3.219330      2.921240      0.870510     0.059958   -0.107572   -1.113566
            85    0       4.683580      3.820170      3.253630    -0.000017   -0.061457   -0.419731
            86    0       4.683580      5.546990      6.113530    -0.000021    0.061329    0.419598
            87    0       4.683580      3.820170      6.113530    -0.000036   -0.061352    0.419680
            88    0       4.683580      5.546980      3.253630     0.000002    0.061622   -0.419734
            89    0       3.820170      3.253630      4.683580    -0.061055   -0.419401   -0.000013
            90    0       3.820170      6.113530      4.683580    -0.060949    0.419347   -0.000046
            91    0       5.546980      3.253630      4.683580     0.061221   -0.419409    0.000005
            92    0       5.546990      6.113530      4.683580     0.060932    0.419270   -0.000031
            93    0       3.253630      4.683580      3.820170    -0.419498   -0.000010   -0.061151
            94    0       3.253630      4.683580      5.546980    -0.419520    0.000004    0.061323
            95    0       6.113530      4.683580      5.546990     0.419447   -0.000025    0.061057
            96    0       6.113530      4.683580      3.820170     0.419463   -0.000035   -0.061050
            97    0       0.000000      0.863410      1.429950    -0.000054    0.061068    0.419393
            98    0       0.000000      8.503750      7.937200    -0.000060   -0.060961   -0.419079
            99    0       9.367160      0.863410      7.937210    -0.000004    0.061072   -0.419384
           100    0       0.000000      8.503750      1.429950    -0.000044   -0.060982    0.419342
           101    0       0.863400      1.429950      0.000000     0.061467    0.419697   -0.000059
           102    0       0.863410      7.937210      0.000000     0.061375   -0.419696   -0.000091
           103    0       8.503750      1.429950      0.000000    -0.061373    0.419683   -0.000001
           104    0       8.503750      7.937210      0.000000    -0.061335   -0.419675   -0.000103
           105    0       1.429950      0.000000      0.863410     0.419631   -0.000019    0.061323
           106    0       1.429950      0.000000      8.503750     0.419613   -0.000011   -0.061309
           107    0       7.937210      0.000000      8.503750    -0.419574   -0.000086   -0.061304
           108    0       7.937210      0.000000      0.863410    -0.419558   -0.000011    0.061342
 Energy
       -718.071310140000
 PlusStress:  xx          yy          zz          yz          xz          xy
        -9.26257    -9.26221    -9.26222     0.00015     0.00006    -0.00007
 Feature   EFS_by	VASP
 Feature   MV_grade	1.051170
 Feature   from	database:Selected.cfgs
 Feature   min_dist	1.711353
 Feature   number	1333
END_CFG

BEGIN_CFG
 Size
    15
 Supercell
         5.188410      0.000000      0.000000
         2.072640      4.899110      0.000000
         2.200140      1.016600      4.536470
 AtomData:  id type       cartes_x      cartes_y      cartes_z           fx          fy          fz
             1    0       6.552890      4.726480      0.111160     0.146758    0.099863    0.188537
             2    0       5.402390      1.020050      1.099920     0.060383    0.399624   -0.606618
             3    0       1.792830      1.447980      0.303940    -0.381094   -0.176530   -0.514135
             4    0       4.865750      4.776610      0.149370    -0.059265   -0.170162   -0.216316
             5    0       4.410280      2.156830      1.815680     0.550626   -0.800180    0.769657
             6    0       3.945180      3.512140      0.962540    -0.492904    0.063039   -1.019257
             7    0       2.668000      2.528980      1.735350     0.809134    0.311648   -0.474425
             8    0       6.128100      4.585200      3.686980    -0.163718    0.439405    0.740481
             9    0       3.849480      5.156530      1.641010     0.317551    0.077957    0.697221
            10    0       2.466600      2.122580      3.825640    -0.198883   -0.893047    1.146968
            11    0       4.563290      5.315900      3.203660     0.053280    0.517009   -0.451798
            12    0       4.554450      4.163100      4.534470     0.587460    0.458331    0.946874
            13    0       4.033480      1.445100      3.321290    -0.812649   -0.325279   -0.566970
            14    0       7.509090      4.226330      1.526910     0.160634   -0.099092   -0.582251
            15    0       7.041660      3.409540      2.938140    -0.577313    0.097413   -0.057968
 Energy
        -98.442321300000
 PlusStress:  xx          yy          zz          yz          xz          xy
         0.05186    -2.34327     2.68341     0.21228    -4.29846    -1.02368
 Feature   EFS_by	VASP
 Feature   MV_grade	1.000191
 Feature   from	database:Selected.cfgs
 Feature   min_dist	1.666592
 Feature   number	3372
END_CFG

BEGIN_CFG
 Size
    108
 Supercell
        10.204300      0.000000      0.000000
        -2.116480      9.850160      0.000000
        -0.953544     -5.289870      8.435160
 AtomData:  id type       cartes_x      cartes_y      cartes_z           fx          fy          fz
             1    0      -1.756900      5.296790      4.431970    -0.015061    0.720257   -0.011193
             2    0      -1.236650      6.991460      2.255800     0.401719   -0.280329    0.304092
             3    0      -0.310780      1.970710      1.851840     0.645543    0.397409   -1.188227
             4    0      -0.522600     -1.110430      6.310860     0.130649   -0.297389   -0.518679
             5    0       3.728210      2.065530      0.515270     0.406608    0.990457    0.913228
             6    0       4.828150      3.016630      1.388200    -0.532727   -0.272433   -0.573192
             7    0       3.843250      3.017090      2.768210    -0.541068    0.035791   -0.423514
             8    0       4.136620      4.599810      1.858040     0.292880   -0.090356    0.569311
             9    0       3.335790      1.165730      7.374440    -0.460933   -0.645038   -0.641331
            10    0       4.540370      7.599660      2.200390    -0.832865   -0.284876   -0.374722
            11    0       4.172460      6.189130      3.160590    -0.484551    0.184445   -0.397585
            12    0       4.556750      1.031660      4.489630   -11.971614    0.955679   -1.821999
            13    0       6.391200     -1.121130      4.030130     0.063178    1.099685    0.210965
            14    0       3.694820      1.392350      5.601180    -5.590460    1.930983    3.981476
            15    0       6.172250      0.428440      0.271260    -0.133167   -0.063027   -0.823559
            16    0       4.648290      7.339220      0.338770     0.018507    0.685283    0.344843
            17    0       5.753890      0.683690      4.121140     0.882094   -3.602917   -6.855354
            18    0       2.865930      5.561650      5.706900     0.071994    0.157620    0.065071
            19    0       4.126220      4.527820      3.702890    -0.298440    0.064445   -0.266576
            20    0       4.689230      0.546880      8.287830     0.378317   -0.163162   -0.206305
            21    0       3.137650      7.572850      3.278950    -0.017603   -0.700253   -0.706543
            22    0       2.456690      4.793750      7.174430    -0.384536   -0.752332   -0.213282
            23    0       0.715220      2.397260      5.915490     0.049531   -0.178336    0.263493
            24    0       1.759770      3.893360      5.890930     0.180790    0.063282    1.213617
            25    0       2.295280      2.463920      5.082200     1.087019   -0.681404    0.177419
            26    0       2.878850      6.840410      0.047300     0.227586    0.244209   -0.231209
            27    0       3.184670     -0.190680      4.648940     0.631344    0.381199   -0.448286
            28    0       0.836360      9.223230      0.249690     0.005672   -0.663192   -0.426248
            29    0       2.089690      6.753650      1.631470     0.477900   -0.057133    0.474302
            30    0       3.505450     -1.637860      5.464720    -0.765023   -1.159994   -0.452071
            31    0       2.888420      5.309860      0.998210     0.412412   -0.217593   -0.228803
            32    0       3.103470     -4.673000      8.112470     0.469913   -0.570366   -0.437490
            33    0       1.197260      4.276320      3.196460    -0.276881   -0.073064   -0.588808
            34    0       2.379690     -0.706440      3.096130     0.075637    0.368922   -0.016870
            35    0       0.153520      2.799430      3.147780     0.561040    0.402854    1.023305
            36    0      -0.356030      4.278520      4.100260    -0.135757   -0.548854    0.378007
            37    0       0.139810      4.962880      0.597300    -0.396212   -0.586605   -0.439222
            38    0       0.771920     -1.577690      3.538900     0.242112   -0.444397    0.497649
            39    0       0.412800     -3.869390      7.760850     0.917952   -0.547332    1.447908
            40    0       2.038290      2.635300      0.307700    -0.114599    0.146153   -0.471752
            41    0       0.125020      7.325470      3.164990    -0.189926    0.077054   -0.464513
            42    0      -0.063740     -0.127730      7.437300     0.220159    0.666295    1.000632
            43    0       0.773370     -1.540310      5.307000     0.108761   -0.121634   -0.126811
            44    0      -0.958800      1.213410      8.141370    -0.742055   -0.323714   -0.287059
            45    0       1.149170      1.389510      1.107570    -0.332160    0.241585   -0.241278
            46    0       2.289590      0.182710      1.659750    -0.072656    0.610398    0.347137
            47    0       2.180260     -0.694470      6.010990    -0.126859    0.281213    1.001978
            48    0       1.265110      7.615950      0.366560    -0.202682    0.604970   -0.135315
            49    0       2.098490     -2.467830      6.009390     0.641314   -0.028077    0.737954
            50    0       1.359140      5.141520      1.810090    -0.000095   -0.350592   -0.187017
            51    0      -0.596070      4.767390      7.222340     0.188952   -0.329191   -0.261114
            52    0       1.718470      0.067810      7.573430    -0.123920    0.004384   -0.018627
            53    0       3.674520     -1.778160      3.710280     0.841566    0.287440    0.369378
            54    0       2.643630      1.932040      1.854260    -1.022436   -0.175176    0.095560
            55    0       0.917550      1.603550      4.351450     0.226043   -0.117260    0.219720
            56    0       0.001450      4.018870      5.793030    -0.351247   -0.101295   -0.471141
            57    0       2.578470      4.028820      4.313340     0.017270    0.235173    0.176006
            58    0       2.030870     -3.385400      7.422640    -0.052174    0.014998   -0.354012
            59    0       0.911940      6.745230      4.687180    -0.051763   -0.250641    0.265774
            60    0       1.734680      4.251900      0.295210    -0.284195    0.601925   -0.140145
            61    0       1.384210     -0.098440      4.440270     0.018608    1.003886   -0.211589
            62    0       0.566860      1.482750      7.305650     0.308060    0.323402   -0.364037
            63    0       0.364650      6.549940      1.470450     0.380749   -0.181930    0.146777
            64    0      -0.880060      6.751580      4.574710     0.446606    0.484361   -0.391641
            65    0      -0.832930      9.746960      0.132410    -0.166895    0.581466   -0.251270
            66    0       1.157400      5.065070      4.726540     0.002860   -0.544216    0.175369
            67    0       2.000900      2.690970      3.333700    -0.336425    0.185602    0.272836
            68    0      -0.586700      2.587570      4.742080     0.204053    0.694329   -0.460407
            69    0       8.655910     -0.349000      1.434460    -0.311806    0.152507   -0.501295
            70    0       6.616910      4.464100      8.394890     0.036340   -0.791547    0.372570
            71    0       8.076150      5.986590      1.310940    -0.802298   -0.204641   -0.767775
            72    0       7.301250      4.087750      4.553050     0.002193   -0.511714   -0.107887
            73    0       6.849400      6.320470      4.427400     0.984483   -0.766972    0.468773
            74    0       5.962090      6.657210      2.875730    -0.383590    0.021110   -0.236336
            75    0       7.390230      4.330150      1.654090    -0.124291   -0.679191   -0.410756
            76    0       7.927660      2.326790      4.414840     0.399289   -0.454142    0.574423
            77    0       8.637030      4.506280      0.379710     0.170859    0.075209    0.335331
            78    0       9.198070     -1.981190      3.652540     1.003668    0.308625   -0.081407
            79    0       7.405710      1.775900      0.008940    -0.256391   -0.039627    0.021305
            80    0       4.089040      5.016490      7.209480     0.130046    0.455152    0.373938
            81    0       7.049980     -1.751380      5.688710    -0.144320    0.183700    0.088693
            82    0       5.422760      2.443420      3.040760    -0.456583   -0.116636    0.438291
            83    0       5.974380      0.692550      7.041580     0.824697   -0.210528    1.358866
            84    0       5.347200      1.530570      5.709620     0.864003    1.429935    0.525153
            85    0       3.969240      6.679430      4.994390    -0.514463   -0.215484   -0.496644
            86    0       5.299160      5.666190      4.285870     0.537917   -0.751503    0.377003
            87    0       6.929500      1.621580      5.859500     1.312801    0.185627    1.008592
            88    0       6.364950      5.800320      1.493690     0.297079    0.242151   -0.268409
            89    0       7.047870      0.783010      4.446980    14.573495   -1.450089    2.630941
            90    0       7.244170      3.467070      0.095050    -0.356997   -0.469041    0.853833
            91    0       7.934670     -1.361670      2.800330     0.219232    1.100704   -0.555838
            92    0       7.504240      0.788370      7.806430     0.654323    0.953865    0.371321
            93    0       6.955810      3.316540      3.060630     0.713811    0.935337   -0.102028
            94    0       8.836350     -2.060470      5.380770    -1.253208    0.355301   -0.081038
            95    0       5.643160      4.011780      7.041900    -0.409017   -0.541679    0.137408
            96    0       4.996020      8.877770      1.058100     0.135340    0.088607    0.332722
            97    0       5.660030      3.841180      4.166350    -0.010865   -0.380808    0.501623
            98    0       8.888080      1.308980      0.775390    -0.411764   -0.650324    1.063097
            99    0       8.028880     -0.815820      4.463440    -0.821716    0.176852   -0.097363
           100    0       6.934150      1.578010      3.026100     0.179892   -0.260936   -0.941622
           101    0       6.808470     -0.855380      7.181100     0.051134   -0.197639   -0.329653
           102    0       6.300280      3.188410      5.733250    -1.211978    1.402058   -0.266937
           103    0       7.041770      6.841180      0.156360    -0.498264   -0.186781    0.486985
           104    0       7.774990     -3.375630      5.799870     0.028303    0.526122    0.469941
           105    0       5.791440      4.302690      0.864860    -0.124889    0.423181   -0.367824
           106    0       7.285320      0.844240      1.516410     0.125200    0.177067   -0.038334
           107    0       7.802910     -4.123470      7.396310    -0.312115   -0.561654   -0.420511
           108    0       6.399950      8.386650      0.086740    -0.067968   -0.075216   -0.264164
 Energy
       -687.012138570000
 PlusStress:  xx          yy          zz          yz          xz          xy
        42.82526    19.88692    17.71483     2.67035    -5.74336    -5.46274
 Feature   EFS_by	VASP
 Feature   MV_grade	1.377239
 Feature   from	database:Selected.cfgs
 Feature   min_dist	1.300000
 Feature   number	1160
END_CFG

BEGIN_CFG
 Size
    20
 Supercell
         3.092280      0.000000      0.000000
        -0.000005      5.732650      0.000000
         0.000055     -0.000004      7.921460
 AtomData:  id type       cartes_x      cartes_y      cartes_z           fx          fy          fz
             1    0       2.173710      5.732640      4.218970    -0.198480   -0.000073    0.050040
             2    0       0.918580      5.732630      0.258240     0.198961    0.000153    0.049887
             3    0       2.173680      2.866310      0.258230    -0.198517    0.000074    0.050417
             4    0       0.918610      2.866320      4.218960     0.199053   -0.000163    0.050305
             5    0       0.739320      0.922520      6.638200    -0.277327   -0.490335   -0.015229
             6    0       2.353070      4.810140      2.677470     0.277044    0.490230   -0.015415
             7    0       0.739240      1.943820      2.677470    -0.277067    0.490122   -0.015314
             8    0       2.353070      3.788830      6.638210     0.277116   -0.490042   -0.015585
             9    0       2.353020      0.922520      2.677470     0.277219   -0.490186   -0.015480
            10    0       0.739280      4.810130      6.638200    -0.277117    0.490313   -0.015290
            11    0       2.353100      1.943820      6.638210     0.277084    0.489970   -0.015599
            12    0       0.739290      3.788840      2.677470    -0.277271   -0.490082   -0.015388
            13    0       0.597540      0.000020      5.080780     0.037810   -0.000606    0.479999
            14    0       2.494810      0.000010      1.120050    -0.038550   -0.000046    0.480019
            15    0       0.597500      2.866340      1.120060     0.037657   -0.000114    0.479758
            16    0       2.494840      2.866340      5.080790    -0.038389   -0.000550    0.479765
            17    0       1.546090      1.433160      1.195040     0.000408   -0.000536   -0.499181
            18    0       1.546160      4.299460      5.155780    -0.000238    0.000547   -0.499245
            19    0       1.546200      1.433130      5.155780     0.000415    0.000860   -0.499289
            20    0       1.546180      4.299460      1.195040     0.000188    0.000464   -0.499175
 Energy
       -130.432725160000
 PlusStress:  xx          yy          zz          yz          xz          xy
        -5.42511     0.69342     3.50604     0.00055    -0.00209     0.00022
 Feature   EFS_by	VASP
 Feature   MV_grade	1.000053
 Feature   from	database:Selected.cfgs