BEGIN_CFG
 Size
    16
 Supercell
         4.755370      0.000000      0.000000
         0.012326      5.162130      0.000000
         1.300560     -0.014639      4.574110
 AtomData:  id type       cartes_x      cartes_y      cartes_z           fx          fy          fz
             1    0       5.384880      1.703420      3.996210     0.934367    0.447333   -0.026470
             2    0       3.095760      4.414510      0.783030     0.703494   -0.171039   -0.041966
             3    0       2.972510      0.732980      3.791080    -0.703700    0.171009    0.041857
             4    0       0.683380      3.444070      0.577900    -0.934428   -0.447318    0.026504
             5    0       4.469530      4.411170      1.820620    -0.152833   -0.168319   -0.688333
             6    0       3.902970      4.367890      3.482430     0.791758   -0.414628    0.363767
             7    0       1.598720      0.736320      2.753490     0.153124    0.168279    0.688381
             8    0       2.165290      0.779600      1.091680    -0.791770    0.414628   -0.363732
             9    0       3.927120      0.836030      1.099270     0.323900    0.300210   -0.427973
            10    0       4.416090      0.774190      2.791690     0.568409    0.410985    0.663613
            11    0       3.032100      1.732230      2.287140    -0.058141    0.135963    0.076661
            12    0       0.744720      1.714610      0.491430    -0.228991    0.449861   -0.905604
            13    0       2.141140      4.311460      3.474840    -0.323900   -0.300137    0.427997
            14    0       1.652170      4.373300      1.782420    -0.568420   -0.410953   -0.663626
            15    0       3.036160      3.415260      2.286970     0.058129   -0.135993   -0.076662
            16    0       5.323540      3.432880      4.082680     0.229003   -0.449882    0.905584
 Energy
       -102.912616090000
 PlusStress:  xx          yy          zz          yz          xz          xy
         3.18035    -0.16096     3.62695    -0.24611    -0.78442     0.18197
 Feature   EFS_by	VASP
 Feature   MV_grade	4.075503
 Feature   from	database:Selected.cfgs
 Feature   min_dist	1.683026
 Feature   number	2609
END_CFG

BEGIN_CFG
 Size
    60
 Supercell
         9.128430      0.000000      0.000000
         3.818230      7.920270      0.000000
         2.638330     -4.129530      6.565840
 AtomData:  id type       cartes_x      cartes_y      cartes_z           fx          fy          fz
             1    0       1.335200      0.668980      0.230790     0.722893   -1.065540    0.106218
             2    0      14.339200      2.995620      6.115620    -0.725451    1.064003   -0.102835
             3    0       6.619890      3.855520      5.687690     0.469038    0.207108   -3.035430
             4    0       9.054220     -0.191010      0.659870    -0.466197   -0.205974    3.030841
             5    0       8.390110      0.995790      1.862390     0.374351   -0.788548   -0.447067
             6    0       7.840540      0.259290      6.462420    -1.513797    0.236588    0.462688
             7    0       9.288320      0.748360      6.430180    -0.098024    0.310540   -0.092472
             8    0      10.471900     -0.724530      6.450660     1.514171   -0.236114   -0.463589
             9    0      10.322800      3.471090      1.394620    -0.700615   -1.065488    0.279917
            10    0       2.636790     -1.353930      2.283440     0.879770    0.235718    0.075125
            11    0       4.887080      1.852300      4.730260     0.898798   -0.843861    0.088646
            12    0      11.748500      4.336700      5.007460     0.745914    0.498878   -0.128279
            13    0      10.128900      3.557200      5.016830    -0.870100   -0.418150   -0.033914
            14    0       6.341960      2.345800      2.983720    -1.010769    0.694750    0.324263
            15    0       2.735050     -1.563500      4.066110    -0.120170   -0.008232   -0.163427
            16    0      11.676900      4.605630      1.341820    -0.098532    0.373447   -0.482071
            17    0       5.351300      0.193310      4.952260     0.700155    1.065484   -0.279390
            18    0      13.037200      5.018320      4.063650    -0.880150   -0.235658   -0.075935
            19    0       9.036190      2.628040      2.270110     0.485431    0.521060    0.136840
            20    0       3.925550     -0.672400      1.339440    -0.745090   -0.498214    0.128354
            21    0       5.545320      0.107090      1.330070     0.868543    0.417991    0.032811
            22    0       8.930060      2.872490      4.008630     0.844326    0.312104    0.541508
            23    0      12.938900      5.227920      2.281030     0.120197    0.008218    0.163165
            24    0       3.997220     -0.941160      5.005100     0.096966   -0.373518    0.481587
            25    0       9.131050      6.439510      0.551280    -0.044308   -0.067250    0.414110
            26    0       7.648170      3.503900      2.976520    -0.434123    1.458283   -0.151471
            27    0       9.038400     -1.287210      3.372810    -1.034791    0.760146    0.034563
            28    0       5.588150     -1.360750      5.574040     0.525276   -0.041113    0.404138
            29    0      12.441800      1.909610      4.009750    -0.447231   -0.505447   -0.662601
            30    0       5.057270      4.185290      2.970360    -0.042176    0.385868    0.057526
            31    0       9.331980      1.318610      3.363350     1.011186   -0.695370   -0.324833
            32    0       4.109100      1.073770      1.027800    -0.166521   -0.391007   -0.473457
            33    0       6.543080     -2.775160      5.795580     0.044736    0.067159   -0.413919
            34    0       8.025840      0.160520      3.370660     0.433371   -1.458478    0.150881
            35    0       6.635580      4.951610      2.974410     1.033869   -0.760533   -0.035517
            36    0      10.086000      5.025120      0.772760    -0.525336    0.041956   -0.403852
            37    0       3.232180      1.754620      2.336980     0.447076    0.506118    0.662951
            38    0      10.616600     -0.520910      3.376740     0.043197   -0.386299   -0.057470
            39    0       4.532270      2.587340      3.109040     0.348395   -0.355662   -0.294769
            40    0      11.565100      2.590540      5.319060     0.166310    0.390809    0.473745
            41    0      10.138300     -1.558260      4.735360     0.021973    0.353607    0.967983
            42    0       6.232170      0.035970      6.493100    -0.634675   -0.686769   -0.888671
            43    0      10.157400      2.248060      6.337990     1.176540    0.649889    0.112052
            44    0       7.422710      2.393440      1.607640    -0.214693    0.231952   -1.197919
            45    0       5.535620      5.222640      1.611770    -0.021295   -0.353396   -0.967134
            46    0      12.080200     -0.501120      6.419600     0.636207    0.687175    0.889395
            47    0       5.516710      1.416310      0.008860    -1.175592   -0.650244   -0.111138
            48    0       8.251210      1.270980      4.739460     0.215674   -0.232406    1.198655
            49    0       6.743930      0.791830      2.338440    -0.843118   -0.310720   -0.541477
            50    0       2.975710      0.075020      0.034600     0.080102    0.094900   -0.102071
            51    0      14.119300      1.252050      6.351120     0.616269   -0.528716    0.123563
            52    0       5.673320      4.880870      4.482020     0.164384   -0.528960    0.461355
            53    0       7.283850      2.668580      4.484740    -0.374527    0.788728    0.446400
            54    0      12.698500      3.589310      6.312190    -0.081441   -0.094315    0.103741
            55    0       4.193270     -1.717020      6.561610    -0.616581    0.528240   -0.122160
            56    0       4.690350      6.703770      1.865110    -0.164412    0.529017   -0.461525
            57    0      10.786800      1.811990      1.616500    -0.897956    0.843563   -0.088848
            58    0       6.637800      1.036380      4.076900    -0.485468   -0.521613   -0.137093
            59    0      11.141700      1.076940      3.237660    -0.348092    0.356018    0.295263
            60    0       9.024120     -1.213430      6.482750     0.096110   -0.311721    0.092050
 Energy
       -388.790060120000
 PlusStress:  xx          yy          zz          yz          xz          xy
        10.43397     4.14720    13.39409    -5.49833    -2.85664    -0.93378
 Feature   EFS_by	VASP
 Feature   MV_grade	1.028632
 Feature   from	database:Selected.cfgs
 Feature   min_dist	1.528435
 Feature   number	13738
END_CFG

BEGIN_CFG
 Size
    38
 Supercell
         7.643400      0.000000      0.000000
        -1.730910      6.494150      0.000000
         0.000003      0.000039      5.534340
 AtomData:  id type       cartes_x      cartes_y      cartes_z           fx          fy          fz
             1    0       0.668940      5.913760      5.470210     0.111396   -1.002030    0.000716
             2    0       2.793640      2.301260      1.746200    -0.204237    0.022939    0.085032
             3    0       1.602550      3.586170      3.983590    -0.834969    0.345203   -0.984557
             4    0       5.243580      0.580440      2.703080    -0.111664    1.002457   -0.000471
             5    0       3.118850      4.192910      4.513380     0.204166   -0.022662    0.085092
             6    0       4.309950      2.908000      1.216420     0.834790   -0.344911   -0.984575
             7    0      -0.932450      3.818150      1.867710    -0.128818    0.594379   -0.184573
             8    0       5.665340      0.191810      5.470220    -0.145574   -0.660744    0.000500
             9    0       1.602560      3.586180      1.422520    -0.835367    0.344310    0.984875
            10    0       6.844940      2.676040      4.634870     0.128751   -0.593952   -0.184529
            11    0       0.247190      6.302390      2.703050     0.145361    0.661212    0.000267
            12    0       4.309940      2.908020      4.189700     0.835021   -0.345119    0.984647
            13    0       1.303890      1.952530      1.011830    -0.479305   -0.290963   -0.147749
            14    0       1.303900      1.952570      4.394290    -0.479419   -0.291665    0.147927
            15    0       6.352660      0.961450      1.371490    -0.410433   -0.112787    0.641086
            16    0       4.608590      4.541630      3.779010     0.479442    0.291544   -0.148075
            17    0       4.608590      4.541630      1.627120     0.479089    0.291257    0.147770
            18    0      -0.440130      5.532770      4.138660     0.410048    0.112469    0.640962
            19    0       5.170530      3.436490      2.703050     0.247743   -0.518898    0.000255
            20    0      -0.440150      5.532750      1.267450     0.410429    0.112385   -0.641117
            21    0       2.167520      0.602020      4.223540     0.804900   -1.266329   -0.212839
            22    0       0.741950      3.057700      5.470250    -0.247482    0.519330   -0.000490
            23    0       6.352680      0.961430      4.034640    -0.410587   -0.112269   -0.641299
            24    0       3.744990      5.892180      1.456350    -0.805001    1.266621   -0.212410
            25    0       4.166230      1.997230      2.703060     1.516979   -1.533457    0.000148
            26    0       1.746240      4.496980      5.470220    -1.516351    1.533142   -0.000030
            27    0       5.569850      1.919870      5.470220    -1.055390    0.748178    0.000171
            28    0       0.342610      4.574380      2.703060     1.055939   -0.748566   -0.000108
            29    0       2.793640      2.301290      3.659920    -0.204186    0.022633   -0.085094
            30    0       6.844950      2.676030      0.771240     0.128336   -0.594528    0.184216
            31    0       3.744990      5.892190      3.949780    -0.805031    1.266363    0.212321
            32    0       3.118830      4.192880      0.892760     0.204792   -0.022436   -0.085316
            33    0      -0.932460      3.818180      3.538400    -0.128843    0.593905    0.184931
            34    0       2.167510      0.602010      1.182610     0.805325   -1.267083    0.211988
            35    0       0.453750      0.595180      1.823680     0.124451    0.154581   -0.261020
            36    0       5.458770      5.898980      4.590850    -0.124464   -0.154496   -0.261104
            37    0       0.453730      0.595230      3.582430     0.124856    0.154268    0.261187
            38    0       5.458770      5.898950      0.815260    -0.124693   -0.154280    0.261267
 Energy
       -241.797260380000
 PlusStress:  xx          yy          zz          yz          xz          xy
        23.95394    12.19552    10.29908    -0.00389    -0.00006     1.39263
 Feature   EFS_by	VASP
 Feature   MV_grade	1.092668
 Feature   from	database:Selected.cfgs
 Feature   min_dist	1.588911
 Feature   number	2989
END_CFG

BEGIN_CFG
 Size
    19
 Supercell
         5.628500      0.000000      0.000000
         0.105698      4.841050      0.000000
         2.749440     -0.216079      5.011790
 AtomData:  id type       cartes_x      cartes_y      cartes_z           fx          fy          fz
             1    0       5.552660      2.039000      4.311290    -0.148230   -0.231427   -0.310261
             2    0       7.366690      4.374080      3.364290    -0.007333    0.117594   -0.433828
             3    0       4.455180      3.711150      1.226240     0.236040    0.846177   -0.253006
             4    0       2.929110      1.378920      0.811460    -0.069501   -0.353156    0.003188
             5    0       6.511490      3.528430      4.530040    -0.200132   -0.408796    0.396540
             6    0       2.157910      2.166610      2.160600     0.302364    0.400075   -0.598902
             7    0       2.996990      4.579490      0.824150    -0.024335    0.017060   -0.099886
             8    0       5.660770      0.047210      1.638750     0.186561   -0.743398    0.130272
             9    0       4.659450      3.568720      4.727200     0.219134    0.749318   -0.285406
            10    0       3.525210     -0.129690      3.762350     0.229367   -0.266212    0.272764
            11    0       1.562680      3.743240      1.474840    -0.144105    0.569925    0.232369
            12    0       1.470110      2.266790      0.518990    -0.395556   -0.866899   -0.066255
            13    0       4.774910      0.996810      2.937140     0.163161    0.877168   -0.593280
            14    0       6.458250      1.059730      2.843350     0.041744   -0.351400    0.954375
            15    0       4.330940      2.214840      0.210210     0.255327   -0.145330   -0.170388
            16    0       0.204810      1.133310      0.190210     0.148833    0.627611   -0.374905
            17    0       3.097620      3.690040      2.355150    -0.054432    0.116869    0.089262
            18    0       3.937670      2.187730      1.970410     0.234301   -0.847368    0.611882
            19    0       2.276850      1.127350      3.682200    -0.973207   -0.107813    0.495467
 Energy
       -124.178497150000
 PlusStress:  xx          yy          zz          yz          xz          xy
         1.83307     2.58455    -0.52186     0.76421     1.12393    -0.60592
 Feature   EFS_by	VASP
 Feature   MV_grade	1.303661
 Feature   from	database:Selected.cfgs
 Feature   min_dist	1.640966
 Feature   number	6388
END_CFG

BEGIN_CFG
 Size
    108
 Supercell
        10.366900     -0.676125     -0.136767
         3.018160      9.630390      0.685208
         2.054970     -6.509590      7.464950
 AtomData:  id type       cartes_x      cartes_y      cartes_z           fx          fy          fz
             1    0      12.511700      7.445270      0.628700    -0.000271   -0.000223    0.000171
             2    0      10.101800      5.383110      2.959990     0.000236   -0.000055    0.000066
             3    0       3.391730      3.090280      4.002890     0.000463    0.000115   -0.000224
             4    0       5.164330      3.800170      0.568760     0.000146   -0.000041    0.000032
             5    0      11.637100      9.047320      0.591180    -0.001369    0.000180    0.000348
             6    0      10.520600      5.056470      4.687760    -0.001205    0.000571    0.000091
             7    0      12.137400      2.048550      2.990380    -0.000215    0.000420    0.000439
             8    0       8.639590     -3.744980      7.408300    -0.000367   -0.000232    0.000243
             9    0      14.590900      1.949500      6.651950    -0.000290   -0.000529   -0.001139
            10    0       8.899450      4.459540      4.141230    -0.000038   -0.000098    0.000338
            11    0      12.185800      2.159340      4.810390    -0.001004   -0.000021    0.000455
            12    0       6.561880      3.469950      1.668790    -0.000062    0.000018    0.000100
            13    0      10.864700      1.412320      7.397420    -0.000489   -0.000073    0.000115
            14    0      12.387900     -1.515280      7.404200     0.000019    0.000015   -0.000034
            15    0      12.961100      4.898600      4.704770     0.000935    0.000141    0.000050
            16    0       7.027820      2.423350      2.931770    -0.000149    0.000148   -0.000063
            17    0       8.913670      8.098250      1.672030     0.000472   -0.000242    0.000120
            18    0       3.387120     -0.712540      6.524190     0.000711    0.000470   -0.000173
            19    0      13.568000      5.172470      2.949620     0.000225   -0.000012    0.000103
            20    0       5.987700      1.424290      3.994570    -0.000592    0.000655    0.000294
            21    0       9.946710      9.149760      0.594900     0.000198   -0.000118   -0.000142
            22    0      11.886500      5.853740      0.525610    -0.000163    0.000489   -0.000427
            23    0       9.956400     -3.096120      3.255210     0.000040    0.000055    0.000230
            24    0       6.900770      0.711700      2.611370    -0.000359   -0.000102   -0.000995
            25    0       2.928320     -5.000490      7.384630     0.000862    0.000248   -0.000090
            26    0       5.338260     -2.938330      5.053370    -0.000215   -0.000015    0.000030
            27    0      12.048300     -0.645500      4.010440    -0.000022   -0.000014    0.000113
            28    0      10.275800     -1.355390      7.444610    -0.000921   -0.000052   -0.000234
            29    0       3.803010     -6.602540      7.422160    -0.000380   -0.000067   -0.000272
            30    0       4.919500     -2.611690      3.325600     0.000852   -0.000456    0.000044
            31    0       3.302630      0.396220      5.022950     0.000791   -0.000592   -0.000482
            32    0       6.800480      6.189770      0.605070     0.000488    0.000054   -0.000295
            33    0       0.849130      0.495270      1.361380     0.000764    0.000524    0.001048
            34    0       6.540630     -2.014750      3.872140    -0.000118    0.000120   -0.000341
            35    0       3.254300      0.285430      3.202940     0.000243    0.000214   -0.000641
            36    0       8.878190     -1.025160      6.344580     0.000245   -0.000134    0.000074
            37    0       4.575390      1.032470      0.615960    -0.000023    0.000262    0.000220
            38    0       3.052130      3.960060      0.609160    -0.000159   -0.000072    0.000115
            39    0       2.478900     -2.453820      3.308580     0.000059    0.000073   -0.000100
            40    0       8.412230      0.021450      5.081620     0.000259   -0.000141    0.000053
            41    0       6.526380     -5.653450      6.341360    -0.000325    0.000235   -0.000247
            42    0      12.052900      3.157330      1.489160    -0.000563   -0.000603    0.000066
            43    0       1.872000     -2.727690      5.063730     0.000737    0.000012    0.000228
            44    0       9.452350      1.020500      4.018810     0.000699   -0.000598   -0.000268
            45    0       5.493350     -6.704960      7.418480     0.000432    0.000015    0.000143
            46    0       3.553530     -3.408960      7.487740     0.000071   -0.000453    0.000435
            47    0       5.483630      5.540910      4.758140    -0.000013   -0.000176   -0.000025
            48    0       8.539280      1.733100      5.402020     0.000452    0.000055    0.001024
            49    0       7.904830     -2.528550      6.394910     0.000151    0.000179   -0.000327
            50    0       3.275380      1.970700      2.597090     0.000117    0.000617   -0.000564
            51    0       7.842530     -2.964820      3.307630    -0.000242    0.000236    0.000100
            52    0       9.652990     -1.079680      1.292770    -0.000360   -0.000216    0.000378
            53    0      11.160700      0.910620      3.999930    -0.001060   -0.000017    0.000790
            54    0       8.036200      3.472040      0.608990    -0.000267   -0.000187    0.000108
            55    0      11.646600     -5.920840      6.388530    -0.000686    0.000504   -0.000440
            56    0       6.061550     -4.557670      5.109410     0.000214   -0.000687    0.000118
            57    0       8.293230      5.560840      2.983290     0.000088   -0.000299   -0.000236
            58    0       5.779590      1.848960      7.297250     0.000371   -0.000254   -0.000188
            59    0       5.769470      5.119800      1.645310     0.000344   -0.000008    0.000058
            60    0      13.725400      1.439990      5.314720     0.001062    0.000438    0.000980
            61    0       8.525350      1.414910      2.518140    -0.000159   -0.000619   -0.000217
            62    0      10.470200     -3.307880      4.975040    -0.000832    0.000037    0.000034
            63    0      11.001400      4.761720      1.608500    -0.000297   -0.000017    0.000115
            64    0      11.051200      2.987950      6.608450     0.000210    0.000298   -0.000358
            65    0       4.014380      4.669620      4.162810     0.000223   -0.000100    0.000027
            66    0       7.089960      2.634460      4.719180     0.000074    0.000625   -0.000251
            67    0       7.263110      7.822900      0.825760     0.000369   -0.000245    0.000067
            68    0      12.990900     -2.917050      6.334100     0.000008   -0.000075   -0.000335
            69    0       4.961310     -0.902220      7.401150    -0.000662   -0.000122    0.000124
            70    0       6.035230      0.201250      1.274530     0.000310    0.000215    0.000975
            71    0       6.800540     -0.184000      4.138610    -0.000275   -0.000103    0.000572
            72    0       4.097520      7.341080      2.961880    -0.000244    0.000195   -0.000059
            73    0       7.535240      4.973330      1.618460     0.000013    0.000033    0.000297
            74    0      12.164700      0.474060      5.416240    -0.000662   -0.000515    0.000470
            75    0       7.597540      5.409600      4.705730     0.000389   -0.000235   -0.000087
            76    0       5.787060      3.524450      6.720560     0.000645   -0.000032   -0.000296
            77    0       4.279360      1.534160      4.013410     0.000842    0.000075   -0.000632
            78    0       7.403870     -1.027260      7.404380     0.000402    0.000252   -0.000227
            79    0       3.793490      8.365610      1.624810     0.000100   -0.000336    0.000167
            80    0       9.378520      7.002450      2.903960    -0.000131    0.000886   -0.000173
            81    0       7.146840     -3.116050      5.030080    -0.000169    0.000116    0.000218
            82    0       9.660470      0.595810      0.716080    -0.000262    0.000355    0.000249
            83    0       9.670590     -2.675020      6.368050    -0.000076    0.000132   -0.000015
            84    0       1.714620      1.004780      2.698610    -0.000275   -0.000458   -0.000842
            85    0       6.914700      1.029890      5.495250     0.000051    0.000612    0.000281
            86    0       4.969880      5.752660      3.038320    -0.000164    0.000037   -0.000118
            87    0       4.438630     -2.316940      6.404850     0.000359   -0.000062    0.000040
            88    0       4.388840     -0.543160      1.404940    -0.000021   -0.000099    0.000289
            89    0      11.425700     -2.224840      3.850530    -0.001060    0.000009    0.000033
            90    0       8.350090     -0.189670      3.294220    -0.000039   -0.000639    0.000079
            91    0       8.176940     -5.378110      7.187620    -0.000013    0.000311   -0.000105
            92    0       2.449120      5.361830      1.679260     0.000065    0.000043    0.000051
            93    0      10.478700      3.347000      0.612210     0.000920    0.000130   -0.000258
            94    0       9.404830      2.243550      6.738860    -0.000305   -0.000411   -0.001142
            95    0       8.639510      2.628790      3.874780     0.000266    0.000129   -0.000574
            96    0      11.342500     -4.896300      5.051470     0.000395   -0.000419   -0.000025
            97    0       4.044980      2.530310      1.192970    -0.000178    0.000047    0.000190
            98    0       8.998790     -1.656030      2.741090    -0.000224    0.000068    0.000192
            99    0      10.243600      3.581710      3.784970    -0.000408   -0.000035   -0.000403
           100    0       9.239070      2.352640      1.233060    -0.000659    0.000264    0.000588
           101    0       3.814260     -1.353330      3.000170    -0.000516    0.000232    0.000420
           102    0       4.796840     -0.492160      5.706610    -0.000801   -0.000087   -0.000119
           103    0      10.643200      2.936920      2.306750     0.000509    0.000199    0.000281
           104    0      11.625800      3.798090      5.013190     0.000219   -0.000569   -0.000313
           105    0       6.441270      4.100840      5.272260     0.000160    0.000128   -0.000230
           106    0      11.395100     -0.085490      6.820370    -0.000026   -0.000074   -0.000133
           107    0       6.200990      0.092120      6.780310     0.000546   -0.000390   -0.000401
           108    0       5.196460     -1.136940      4.228410     0.000559   -0.000066    0.000175
 Energy
       -716.754924220000
 PlusStress:  xx          yy          zz          yz          xz          xy
        -0.00194     0.00874    -0.00345    -0.00736    -0.00236    -0.00030
 Feature   EFS_by	VASP
 Feature   MV_grade	3.653847
 Feature   from	database:Selected.cfgs
END_CFG

BEGIN_CFG
 Size
    16
 Supercell
         5.721810      0.000000      0.000000
         1.642940      4.442720      0.000000
         1.648280      0.766283      4.374390
 AtomData:  id type       cartes_x      cartes_y      cartes_z           fx          fy          fz
             1    0       1.909910      0.914350      2.431520    -0.328085   -0.229579    0.418500
             2    0       3.737170      1.114420      2.266680     0.074359   -0.575022    0.165172
             3    0       2.648340      2.506760      2.387110    -0.047083    1.055558    0.770712
             4    0       8.070390      4.100500      3.293490    -0.330388   -0.018297    0.642501
             5    0       6.329640      4.249710      3.161690     0.330593    0.018253   -0.642371
             6    0       5.526070      3.066560      2.165150     0.755094    0.531668   -0.121962
             7    0       4.568840      4.401440      1.297320     0.497238   -0.172247    0.330275
             8    0       4.045730      2.547800      1.292040     0.855590    0.266314    0.517424
             9    0       6.880630      2.186790      1.531030    -0.729986    0.627812    0.221903
            10    0       7.231040      0.840930      4.290040    -0.755372   -0.531766    0.121761
            11    0       4.386940      1.400710      4.068070     0.047403   -1.055025   -0.770457
            12    0       5.125400      2.993160      4.023670     0.327719    0.229049   -0.418542
            13    0       3.298130      2.793070      4.188520    -0.074617    0.574996   -0.165588
            14    0       1.341270      0.593390      0.788750    -0.855261   -0.265970   -0.517035
            15    0       4.228190      0.954420      0.549770     0.729996   -0.628075   -0.222102
            16    0       2.461110      3.182480      0.783480    -0.497200    0.172331   -0.330193
 Energy
       -103.160948650000
 PlusStress:  xx          yy          zz          yz          xz          xy
         0.85203     4.54014     2.54747    -1.68815     0.68087     1.26547
 Feature   EFS_by	VASP
 Feature   MV_grade	3.414849
 Feature   from	database:Selected.cfgs
 Feature   min_dist	1.712717
 Feature   number	3315
END_CFG

BEGIN_CFG
 Size
    36
 Supercell
         8.737960      0.000000      0.000000
         0.000000      6.671610      0.000000
         0.000000      0.000000      4.974010
 AtomData:  id type       cartes_x      cartes_y      cartes_z           fx          fy          fz
             1    0       0.000000      4.750180      0.968520    -0.000028    0.489378    0.107280
             2    0       4.368980      1.414370      1.518490     0.000038    0.489444   -0.107304
             3    0       4.368980      5.257240      3.455520     0.000035   -0.489511    0.107621
             4    0       0.000000      1.921430      4.005490     0.000009   -0.489470   -0.107549