BEGIN_CFG
 Size
    8
 Supercell
         4.000000      0.000000      0.000000
         0.000000      4.000000      0.000000
         0.000000      0.000000      4.000000
 AtomData:  id type       cartes_x      cartes_y      cartes_z      charge
             1    0       0.000000      0.000000      0.000000      1.0000
             2    0       2.000000      2.000000      0.000000      1.0000
             3    0       2.000000      0.000000      2.000000      1.0000
             4    0       0.000000      2.000000      2.000000      1.0000
             5    1       1.000000      1.000000      1.000000     -1.0000
             6    1       1.000000      3.000000      3.000000     -1.0000
             7    1       3.000000      1.000000      3.000000     -1.0000
             8    1       3.000000      3.000000      1.000000     -1.0000
END_CFG

