BEGIN_CFG
 Size
    2
 Supercell
         0.000000      2.000000      2.000000
         2.000000      0.000000      2.000000
         2.000000      2.000000      0.000000
 AtomData:  id type       cartes_x      cartes_y      cartes_z      charge
             1    0       0.000000      0.000000      0.000000      1.0000
             2    1       1.000000      1.000000      1.000000     -1.0000
END_CFG

