BEGIN_CFG
 Size
    4
 Supercell
        10.000000      0.000000      0.000000
        -5.000500      8.660250      0.000000
         0.000000      0.000000     16.330000
 AtomData:  id type       cartes_x      cartes_y      cartes_z      charge
             1    0      -0.000500      5.773790      0.000000      1.0000
             2    0       5.000500      2.886460      8.165000      1.0000
             3    1      -0.000500      5.773790      6.123750     -1.0000
             4    1       5.000500      2.886460     14.288700     -1.0000
END_CFG

