BEGIN_CFG
 Size
    128
 Supercell
        14.080000      0.000000      0.000000
         0.000000     14.080000      0.000000
         0.000000      0.000000     14.080000
 AtomData:  id type       cartes_x      cartes_y      cartes_z           fx          fy          fz
             1    0       0.272080      0.216830      0.089120    -0.068118   -0.138527    0.009735
             2    0       1.797410      1.738960      2.172980    -0.084297    0.003783   -0.386220
             3    0       0.130750     13.908320      3.601130    -0.108044   -0.134690   -0.174428
             4    0       1.510610      1.380470      5.381370     0.099563    0.459898    0.258488
             5    0      13.716220     14.043380      7.405610     0.045792    0.080738    0.004021
             6    0       1.339190      2.024230      8.594190    -0.051167   -0.034779   -0.046409
             7    0       0.316540      0.347780     11.111090    -0.428101   -0.027609   -0.354525
             8    0       1.958390      2.150770     12.154350     0.057407   -0.025729    0.218910
             9    0      14.060730      3.188870      0.116280     0.163561    0.003251    0.235154
            10    0       2.002180      4.979170      2.023510    -0.201401    0.050929   -0.391161
            11    0      14.071370      3.351490      3.667370     0.238585    0.088428   -0.036117
            12    0       1.667940      5.537210      5.419000    -0.029974   -0.187181   -0.243365
            13    0      13.639380      3.665100      6.631700     0.301611    0.079221    0.279324
            14    0       1.239670      5.483620      8.724000     0.165387   -0.035199    0.018236
            15    0      14.043710      3.898560     11.142460    -0.048470   -0.271592   -0.403887
            16    0       1.892260      5.219150     12.714630     0.284576   -0.122924    0.261240
            17    0       0.277920      7.069030      0.334550     0.059937    0.072616   -0.108867
            18    0       1.611110      8.792220      2.193220     0.029120    0.419384   -0.106886
            19    0       0.055950      6.793370      3.261420     0.123194    0.123772    0.442277
            20    0       1.872410      8.753890      5.345450     0.147688   -0.102244   -0.022682
            21    0       0.054210      7.174760      6.714590    -0.473007    0.012641    0.086706
            22    0       1.992630      8.654430      8.877410    -0.164929   -0.010547   -0.102185
            23    0       0.523130      7.177230     11.405870    -0.424358    0.011111   -0.312961
            24    0       2.421360      8.911640     12.374050    -0.094736    0.288282    0.031928
            25    0      14.025520     10.390670     13.859250    -0.044579   -0.258398   -0.093777
            26    0       1.613040     12.127570      1.435290     0.132713   -0.000901    0.265437
            27    0       0.137030     10.915140      4.007620    -0.143088   -0.239654   -0.257177
            28    0       1.589730     12.765110      5.957520     0.276043   -0.400781   -0.143891
            29    0       0.016890     10.238400      6.904010     0.046313    0.239959    0.113906
            30    0       1.675400     12.446170      8.973560    -0.210269   -0.070308   -0.116128
            31    0      13.757590     10.132100     10.663650     0.142233    0.095488   -0.125064
            32    0       1.572480     12.214200     12.169320     0.183275   -0.135079    0.109848
            33    0       3.568590     13.866020     13.810190    -0.098146    0.213160    0.043732
            34    0       5.438130      1.481320      1.991630    -0.236976    0.297264   -0.253384
            35    0       3.427130      0.235010      3.620750     0.000901   -0.453463   -0.052393
            36    0       5.027100      1.520630      5.580400     0.339621    0.310923   -0.402152
            37    0       3.644150      0.302930      7.341730    -0.532547   -0.421348    0.017142
            38    0       5.117880      2.017440      8.431820     0.440873    0.210413    0.380379
            39    0       3.263110      0.353280     10.326760     0.142870   -0.166851   -0.029536
            40    0       5.089360      1.929230     11.970870    -0.015499   -0.089457   -0.143646
            41    0       3.736250      2.981240      0.110410    -0.084477    0.113500    0.175117
            42    0       5.126070      4.948270      1.851040     0.010472    0.263549   -0.070107
            43    0       3.308380      3.412100      3.867800     0.214965   -0.048148    0.131927
            44    0       5.282700      5.357940      5.239690     0.039782   -0.127433   -0.199230
            45    0       3.247810      3.956030      6.948890     0.120994   -0.296441    0.086653
            46    0       5.608520      5.358620      8.863210     0.023792   -0.188302    0.013774
            47    0       3.196010      3.570130      9.961040     0.180175    0.185948    0.287941
            48    0       5.128240      5.253890     12.504210    -0.156381    0.036378    0.114763
            49    0       3.574440      7.576910      0.397170     0.063083   -0.368583   -0.067554
            50    0       5.223050      9.080430      2.107860     0.158938    0.048413    0.133651
            51    0       3.284330      6.928870      3.545230     0.366883    0.097586    0.108085
            52    0       5.861820      8.492300      5.223890    -0.515149    0.272696    0.326719
            53    0       4.025480      6.895100      7.096030    -0.389275    0.233462    0.078375
            54    0       5.975990      8.500640      8.820650    -0.509537    0.052491   -0.107834
            55    0       3.338570      6.593980     10.559990     0.258989    0.178375   -0.045435
            56    0       5.395850      9.374260     12.439650    -0.051846   -0.376384   -0.299783
            57    0       4.184650     10.985090      0.363800    -0.529344   -0.115032   -0.183243
            58    0       5.556960     12.708140      1.928450    -0.009521   -0.096471    0.080393
            59    0       3.214790     10.831800      3.939380     0.210881    0.122472   -0.183509
            60    0       5.334950     12.665520      5.042880     0.065593   -0.051340    0.084273
            61    0       3.861400     10.467240      6.985870    -0.004166   -0.012421    0.047739
            62    0       5.719110     12.567330      7.915560    -0.212663   -0.232099   -0.003801
            63    0       3.444640     10.793510     10.276560     0.154417   -0.232473   -0.165573
            64    0       5.041100     12.312050     11.706830     0.073574    0.264811    0.221356
            65    0       6.722260      0.062540     13.484400     0.053871   -0.070732    0.213140
            66    0       8.599460      1.647140      1.804430     0.074834    0.171869   -0.356058
            67    0       7.338670      0.248040      3.406100    -0.005291   -0.337842    0.607621
            68    0       9.273290      1.747100      5.475700     0.144790    0.423222   -0.375204
            69    0       7.589960      0.213060      6.600500    -0.355062   -0.160077    0.106570
            70    0       8.780190      2.108350      8.641540    -0.000775   -0.125196    0.249442
            71    0       6.827900     13.854540      9.843430     0.093082    0.504626    0.410432
            72    0       8.602340      1.857710     12.194500     0.153715   -0.125225   -0.017952
            73    0       7.000380      3.509700     13.921310    -0.201650   -0.293556    0.228760
            74    0       8.484620      4.999780      1.599790     0.029212    0.119584    0.082113
            75    0       6.928370      3.493300      3.473430     0.060029   -0.170701    0.286951
            76    0       8.869830      5.111010      5.083550    -0.059044   -0.043391    0.117100
            77    0       7.040940      3.590220      6.895260    -0.001549   -0.011722   -0.084689
            78    0       8.924870      5.079900      9.223730    -0.281951    0.027486   -0.295312
            79    0       6.973250      3.646370     10.999640    -0.052609    0.094090   -0.493997
            80    0       8.801990      5.163110     12.502010    -0.049300    0.081853    0.110149
            81    0       7.076560      7.269770     14.068600    -0.186889   -0.132376    0.208807
            82    0       8.693950      8.996700      1.730750    -0.153022    0.066713   -0.175894
            83    0       7.114110      7.136360      3.488140     0.007981   -0.378429   -0.291799
            84    0       9.096140      8.482570      5.319550    -0.164645    0.271795   -0.347238
            85    0       7.413870      6.750390      6.794360    -0.087646   -0.066590    0.225272
            86    0       8.771330      8.456240      8.699920     0.284893   -0.053850    0.261016
            87    0       6.909890      7.023170     10.988210    -0.088866   -0.327646   -0.176183
            88    0       8.527590      8.667390     12.018700     0.308266    0.400850    0.148956
            89    0       6.918980     10.962630     13.936990     0.172091   -0.124737   -0.031968
            90    0       8.626240     12.228590      1.528770    -0.001684    0.101354    0.214949
            91    0       7.144110     10.620200      3.915030     0.134445    0.142159   -0.219476
            92    0       9.414510     12.340700      5.062230    -0.602348   -0.150607    0.571292
            93    0       7.627110     10.237750      6.939970    -0.093255    0.382163    0.005800
            94    0       9.155790     12.812190      8.551520    -0.078378   -0.356421   -0.064825
            95    0       6.852150     10.824800     10.030950     0.233471   -0.058820    0.119214
            96    0       8.757320     12.213430     12.051420    -0.146231    0.170995   -0.127127
            97    0      10.044290     14.026460     14.010820     0.135952   -0.081505    0.076023
            98    0      12.202860      1.583850      2.270740     0.101260   -0.065121   -0.356332
            99    0      10.322260     13.812720      3.409060     0.325335    0.358566   -0.353254
           100    0      12.502760      1.659620      5.191880    -0.333519   -0.146776    0.078435
           101    0      10.854870      0.329810      7.163220    -0.065038   -0.081091   -0.080886
           102    0      12.168400      1.948470      8.990490     0.292380    0.139109    0.171365
           103    0      10.480120      0.381520     10.606380    -0.021384   -0.245787   -0.034098
           104    0      12.085840      1.491680     12.853110     0.201914    0.031633   -0.214125
           105    0      10.451310      3.099800      0.240470     0.053271    0.353274   -0.048099
           106    0      12.642960      5.118160      2.059620    -0.423059   -0.130207   -0.455635
           107    0      10.363220      3.453540      3.307430    -0.122613   -0.228233   -0.129370
           108    0      11.874370      4.922460      4.773460     0.188325    0.488542    0.337364
           109    0      10.867910      3.837850      7.376670    -0.352943   -0.115706   -0.242938
           110    0      12.446830      5.447800      8.919130     0.042591    0.155834    0.172036
           111    0      10.809110      3.617880     11.084290     0.018851   -0.064892   -0.027660
           112    0      12.744190      5.267730     13.025390    -0.467483    0.170298   -0.093075
           113    0      10.438630      6.800600      0.092240    -0.016964    0.072355    0.135414
           114    0      12.295360      8.741730      1.809430    -0.033104    0.005707   -0.248967
           115    0       9.923820      6.930800      3.163510     0.483562   -0.116174   -0.048541
           116    0      12.094760      8.531200      4.639930     0.237849   -0.095024    0.250078
           117    0      10.523020      7.035970      6.959890     0.224939   -0.438825    0.008847
           118    0      12.102240      8.804010      8.408640     0.120697   -0.258689    0.447543
           119    0      10.435130      6.579230     10.730810     0.175467    0.245417   -0.046184
           120    0      11.665900      8.494120     12.174070     0.332809    0.172809    0.098363
           121    0      10.428410     10.581260     13.839140    -0.075054   -0.158831    0.046497
           122    0      12.346250     12.093090      1.430380    -0.023481    0.233333    0.191960
           123    0      10.433780     10.495040      3.281410     0.117025    0.076617    0.008266
           124    0      12.192080     12.416250      5.324030     0.219213    0.136665   -0.022297
           125    0      10.925120     10.297250      6.550580    -0.271461    0.054204    0.054489
           126    0      12.100520     11.963570      8.511710     0.165195    0.155595    0.265117
           127    0      10.261800     10.525530     10.281100     0.045206   -0.120782   -0.039131
           128    0      12.052520     12.309160     12.170670     0.142150    0.068066   -0.046535
 Energy
       -235.183097220000
 PlusStress:  xx          yy          zz          yz          xz          xy
        -8.13191    -8.03274    -7.51093     0.30379     1.18300     1.96801
 Feature   MV_grade	 1.092504
 Feature   from	 database:Li_NVT300.cfg
 Feature   mindists	{(0,0):2.392451}
END_CFG

BEGIN_CFG
 Size
    128
 Supercell
        14.080000      0.000000      0.000000
         0.000000     14.080000      0.000000
         0.000000      0.000000     14.080000
 AtomData:  id type       cartes_x      cartes_y      cartes_z           fx          fy          fz
             1    0      13.885010      0.224840      0.257600    -0.210032   -0.371473    0.151868
             2    0       1.901200      1.992050      2.073200    -0.263737   -0.269929   -0.166044
             3    0      14.043660      0.140740      3.568890    -0.104034    0.037017   -0.042856
             4    0       1.603510      2.055710      5.387180     0.502465   -0.323408    0.101879
             5    0      14.028420      0.165200      6.612560    -0.125572    0.187346    0.004255
             6    0       1.551570      1.875340      8.554380     0.331065   -0.166146   -0.033186
             7    0       0.637500     13.958430     10.497390     0.006786    0.175642   -0.076962
             8    0       1.130290      1.729490     12.767770     0.426580    0.082729   -0.182499
             9    0      13.437490      3.316560      0.219770     0.283560    0.120367    0.094385
            10    0       1.716480      4.983150      1.794890    -0.253164    0.197696    0.116776
            11    0       0.053760      3.418330      3.738620    -0.282275    0.122919   -0.263016
            12    0       2.046900      4.699090      5.354270    -0.068274    0.366274   -0.270389
            13    0      13.876690      3.465330      7.102530    -0.300378   -0.132370   -0.083206
            14    0       2.057090      4.990960      8.027190    -0.299174    0.056680    0.655619
            15    0       0.125560      3.515560     10.426960    -0.234859    0.044701    0.062019
            16    0       1.316740      4.878980     12.806360     0.284833   -0.091467   -0.108286
            17    0      13.971370      6.916520     13.965630    -0.054442    0.069261    0.121541
            18    0       0.830360      8.288880      1.640920     0.460673    0.232442    0.307653
            19    0      13.889920      6.595050      3.687910     0.189002    0.174049    0.343165
            20    0       1.237930      8.585080      5.224070     0.293953   -0.078933    0.136416
            21    0      14.013520      6.392390      7.353670    -0.030581    0.402342   -0.399297
            22    0       1.852660      8.500130      8.500310    -0.020599    0.110665    0.000418
            23    0       0.218370      6.529300     10.575980     0.120169   -0.007915    0.022450
            24    0       1.808800      8.522650     12.221720    -0.154266    0.288546   -0.216752
            25    0       0.175130     10.581300      0.005980    -0.058466   -0.070634   -0.024052
            26    0       1.762980     12.822600      1.789040     0.181893   -0.187246   -0.030933
            27    0       0.640260     10.762280      3.519950    -0.167680   -0.104177   -0.075502
            28    0       1.867300     12.737070      5.219910     0.031551    0.136922   -0.096891
            29    0       0.432030     10.924630      6.914440    -0.020609   -0.342280   -0.045147
            30    0       2.159380     12.778410      8.367430    -0.313293    0.185336    0.100369
            31    0       0.399990     10.885150     10.309880     0.052661   -0.045096   -0.007176
            32    0       1.880920     12.289300     12.639770     0.116234   -0.040609   -0.029504
            33    0       3.746610      0.121030      0.015200    -0.207763    0.062896   -0.112632
            34    0       5.278260      1.610900      1.856760     0.412803   -0.109899    0.115844
            35    0       3.554040      0.306660      3.704690    -0.149071   -0.043317   -0.133457
            36    0       5.597230      1.706720      5.081810     0.144676    0.320446    0.176615
            37    0       4.152400      0.164000      6.968430    -0.386202    0.429662   -0.184318
            38    0       5.617270      2.046620      9.640580    -0.115388    0.128027   -0.119005
            39    0       3.666710      0.045080     10.976340    -0.338541    0.315600   -0.031934
            40    0       5.313210      2.061810     12.624920     0.024169   -0.029652   -0.084039
            41    0       3.710420      3.503420      0.644000     0.100976    0.162882   -0.496751
            42    0       5.389870      6.073450      1.278320     0.008137   -0.364164    0.238287
            43    0       3.877570      3.391480      3.557860     0.021651    0.359746    0.117892
            44    0       5.770560      5.224700      5.521270    -0.191850   -0.358443   -0.062892
            45    0       4.038800      3.612590      7.551450     0.262169   -0.499512   -0.313784
            46    0       5.627710      5.399040      8.957730    -0.065643    0.051206   -0.073763
            47    0       2.996340      3.244820     10.868540     0.167269    0.038336   -0.086736
            48    0       4.709490      5.466480     11.970570     0.369926   -0.389905    0.327870
            49    0       3.030040      6.805930     13.853630     0.141894    0.102848    0.173114
            50    0       5.901610      8.995190      2.053970    -0.123874   -0.022394   -0.089218
            51    0       3.356100      7.307010      3.021110    -0.032928   -0.086273    0.174584
            52    0       5.246290      8.709420      5.166920     0.025719   -0.069395   -0.021134
            53    0       3.569080      6.812000      6.574390    -0.015655    0.066605   -0.055577
            54    0       4.898650      8.407840      8.452360     0.101547    0.077165    0.142664
            55    0       3.180260      6.467640     10.239890    -0.303151    0.075479   -0.261193
            56    0       4.648290      8.508000     11.624040     0.019039    0.171908   -0.022053
            57    0       3.289030      9.849810      0.829220     0.026417    0.055773   -0.269924
            58    0       5.200650     12.493800      1.817920    -0.047501   -0.324148    0.108040
            59    0       3.555930     10.412210      3.765250    -0.046778    0.185528   -0.093417
            60    0       5.391420     12.730870      4.964540    -0.170287   -0.352436    0.303451
            61    0       3.322510     11.027520      6.635640     0.273685   -0.424414    0.135617
            62    0       4.976170     12.933620      8.983340     0.345432   -0.477248    0.065850
            63    0       3.273380     10.830310     10.034700     0.001754   -0.254340   -0.057510
            64    0       4.920940     11.860530     11.975490    -0.010500    0.132700    0.307347
            65    0       6.983580     13.903200     14.069700    -0.104994   -0.002097   -0.142615
            66    0       8.634450      1.609440      1.648090     0.064686   -0.012632   -0.006935
            67    0       7.207360     13.955670      3.632680     0.281173    0.073894   -0.308972
            68    0       8.560330      2.128510      5.190550     0.232799   -0.164000   -0.156491
            69    0       7.010160      0.293080      7.614470     0.027672   -0.165809   -0.350451
            70    0       8.868290      1.204040      9.359510     0.139753    0.325785   -0.011832
            71    0       6.744460     13.954410     10.936980     0.059311   -0.134134    0.019071
            72    0       8.934260      1.171450     12.299910    -0.117178    0.360499   -0.090708
            73    0       7.184200      3.492520      0.019770     0.004407    0.129549   -0.162054
            74    0       8.885110      5.883020      1.068150    -0.170096   -0.108621    0.520627
            75    0       7.224670      3.995670      2.810920    -0.116975   -0.081017    0.307314
            76    0       8.993950      5.157140      5.389560    -0.034515   -0.174424    0.078930
            77    0       7.389360      3.166440      7.514020    -0.094025    0.272311    0.057079
            78    0       8.809800      5.577700      8.672530     0.074605   -0.074583   -0.029396
            79    0       7.429990      4.240580     11.077650    -0.389726   -0.403779   -0.232446
            80    0       8.997030      5.537620     12.573490     0.092403    0.416899    0.020883
            81    0       6.538200      7.360850     13.355360     0.258657   -0.130338    0.028639
            82    0       8.656100      9.131260      1.260610     0.068883   -0.398728    0.241846
            83    0       7.260930      6.874390      3.817250     0.072055    0.297053   -0.293680
            84    0       8.648740      9.120180      5.719460     0.010688    0.101802    0.029334
            85    0       7.182070      7.171820      6.775840    -0.074658    0.015645    0.386097
            86    0       8.846490      8.994430      8.703640     0.014252   -0.019017   -0.011321
            87    0       7.240260      7.304100     10.435940    -0.095350   -0.048553    0.088553
            88    0       8.775020      8.960070     12.362940     0.176590   -0.073664   -0.108155
            89    0       6.530940     10.193520     13.314990    -0.080203    0.160977    0.351339
            90    0       8.252030     11.698410      1.372660     0.193971    0.370683    0.023603
            91    0       7.166080     10.668860      3.944820    -0.080384    0.046891   -0.129680
            92    0       8.587180     12.383620      5.912800     0.129698    0.051233   -0.124640
            93    0       6.213930     10.692410      7.097730     0.212505    0.122299    0.076414
            94    0       8.792190     12.086340      8.839370    -0.419258    0.083792   -0.016967
            95    0       6.757210     10.262460     10.236900    -0.103976    0.113830   -0.028038
            96    0       8.530340     11.954680     11.870120     0.101991    0.095437    0.319299
            97    0      10.467800     13.920480      0.008900     0.185070   -0.281158    0.063655
            98    0      12.155070      1.826590      1.910830    -0.030743   -0.288183   -0.143826
            99    0      10.421520     13.839890      3.085860    -0.110415   -0.140164    0.244371
           100    0      11.902170      1.919000      4.667190     0.092788   -0.041513    0.403170
           101    0      10.802940      0.375130      6.831440    -0.177750   -0.297686    0.059734
           102    0      12.425530      1.400510      9.192880     0.068684    0.067836   -0.098488
           103    0      10.639300     13.412410     10.241550     0.232517    0.016598    0.121000
           104    0      12.078210      1.341220     12.070270     0.087866    0.299759    0.056673
           105    0      10.514320      3.389750     13.893150    -0.174287   -0.062257    0.143230
           106    0      12.299310      5.412070      2.090910    -0.249924   -0.065859   -0.445516
           107    0      10.411480      3.548440      3.056850    -0.342937    0.290090   -0.007721
           108    0      12.037770      5.018480      5.271760    -0.047293   -0.023393    0.124622
           109    0      10.635490      3.215830      7.615590    -0.101335    0.080690   -0.164622
           110    0      12.215170      5.222800      8.962050    -0.204280    0.024578    0.111724
           111    0      10.205190      3.849250     10.775640     0.331653   -0.342141   -0.144135
           112    0      12.433270      5.366310     12.768310    -0.513561   -0.131198   -0.511647
           113    0      10.726720      7.584220      0.128060     0.389127   -0.100763   -0.236513
           114    0      12.318100      9.084010      2.018000    -0.048878   -0.146522    0.291207
           115    0      10.295570      7.302910      3.748180     0.061602   -0.023920   -0.155099
           116    0      12.284290      9.131060      5.558810     0.264987   -0.276239    0.014061
           117    0      10.452560      7.228860      6.845220     0.275628   -0.059054    0.221891
           118    0      13.042000      8.773860      9.195040    -0.335152   -0.015144   -0.464332
           119    0      10.503690      7.135660     10.634920     0.155586    0.043174    0.009099
           120    0      12.921460      8.731900     12.005390    -0.189271    0.100780    0.268132
           121    0      11.042300     10.490010     13.942210    -0.104372    0.246697   -0.202647
           122    0      12.555770     12.019340      1.971890    -0.048617    0.179522   -0.072265
           123    0      10.380570     10.364790      3.973070    -0.246504    0.231150   -0.417712
           124    0      12.399820     11.973810      5.031640     0.083278    0.362733    0.109547
           125    0      10.866590     10.847820      7.496750    -0.011026   -0.192845   -0.189735
           126    0      12.899050     12.473530      8.226860    -0.180570    0.130089    0.551957
           127    0      10.661200     10.452140     10.608450     0.282290   -0.084609   -0.018471
           128    0      12.931360     12.609030     11.976870    -0.293942   -0.240049    0.250459
 Energy
       -234.885003690000
 PlusStress:  xx          yy          zz          yz          xz          xy
        -6.61979    -8.00869    -8.46247    -1.03403    -0.50178     1.68041
 Feature   MV_grade	 1.367068
 Feature   from	 database:Li_NVT300.cfg
 Feature   mindists	{(0,0):2.417875}
END_CFG

