BEGIN_CFG
 Size
    1679
 AtomData:  id type       cartes_x      cartes_y      cartes_z     ghost       nbh_grades
             1    0       0.000000      0.000000      0.000000     false         15.67824
             2    0       2.198417      1.269257      0.000000     false         15.74111
             3    0       0.000000      2.538513      0.000000     false         15.60042
             4    0       2.198417      3.807770      0.000000     false         15.70228
             5    0       1.465611      0.000000      2.072687     false     180123.91855
             6    0       3.664028      1.269257      2.072687     false     180123.90988
             7    0       1.465611      2.538513      2.072687     false     180123.93211
             8    0       3.664028      3.807770      2.072687     false     180123.91899
             9    0       4.396834      0.000000      0.000000     false         15.77996
            10    0       6.595251      1.269257      0.000000     false         15.74059
            11    0       4.396834      2.538513      0.000000     false         15.70214
            12    0       6.595251      3.807770      0.000000     false         15.70176
            13    0       5.862445      0.000000      2.072687     false     180123.89786
            14    0       8.060862      1.269257      2.072687     false     180123.90759
            15    0       5.862445      2.538513      2.072687     false     180123.91142
            16    0       8.060862      3.807770      2.072687     false     180123.91670
            17    0       8.793668      0.000000      0.000000     false         15.77996
            18    0      10.992085      1.269257      0.000000     false         15.74059
            19    0       8.793668      2.538513      0.000000     false         15.70214
            20    0      10.992085      3.807770      0.000000     false         15.70176
            21    0      10.259280      0.000000      2.072687     false     180123.89786
            22    0      12.457697      1.269257      2.072687     false     180123.90759
            23    0      10.259280      2.538513      2.072687     false     180123.91142
            24    0      12.457697      3.807770      2.072687     false     180123.91670
            25    0       0.000000      5.077027      0.000000     false         15.60004
            26    0       2.198417      6.346283      0.000000     false         15.70228
            27    0       0.000000      7.615540      0.000000     false         15.60004
            28    0       1.465611      5.077027      2.072687     false     180123.93739
            29    0       3.664028      6.346283      2.072687     false     180123.91899
            30    0       1.465611      7.615540      2.072687     false     180123.93739
            31    0       4.396834      5.077027      0.000000     false         15.70176
            32    0       6.595251      6.346283      0.000000     false         15.70176
            33    0       4.396834      7.615540      0.000000     false         15.70176
            34    0       5.862445      5.077027      2.072687     false     180123.91670
            35    0       8.060862      6.346283      2.072687     false     180123.91670
            36    0       5.862445      7.615540      2.072687     false     180123.91670
            37    0       8.793668      5.077027      0.000000     false         15.70176
            38    0      10.992085      6.346283      0.000000     false         15.70176
            39    0       8.793668      7.615540      0.000000     false         15.70176
            40    0      10.259280      5.077027      2.072687     false     180123.91670
            41    0      12.457697      6.346283      2.072687     false     180123.91670
            42    0      10.259280      7.615540      2.072687     false     180123.91670
            43    0       2.198417      8.884797      0.000000     false         15.70228
            44    0       0.000000     10.154053      0.000000     false         15.60004
            45    0       2.198417     11.423310      0.000000     false         15.70228
            46    0       0.000000     12.692567      0.000000     false         15.60004
            47    0       3.664028      8.884797      2.072687     false     180123.91899
            48    0       1.465611     10.154053      2.072687     false     180123.93739
            49    0       3.664028     11.423310      2.072687     false     180123.91899
            50    0       1.465611     12.692567      2.072687     false     180123.93739
            51    0       6.595251      8.884797      0.000000     false         15.70176
            52    0       4.396834     10.154053      0.000000     false         15.70176
            53    0       6.595251     11.423310      0.000000     false         15.70176
            54    0       4.396834     12.692567      0.000000     false         15.70176
            55    0       8.060862      8.884797      2.072687     false     180123.91670
            56    0       5.862445     10.154053      2.072687     false     180123.91670
            57    0       8.060862     11.423310      2.072687     false     180123.91670
            58    0       5.862445     12.692567      2.072687     false     180123.91670
            59    0      10.992085      8.884797      0.000000     false         15.70176
            60    0       8.793668     10.154053      0.000000     false         15.70176
            61    0      10.992085     11.423310      0.000000     false         15.70176
            62    0       8.793668     12.692567      0.000000     false         15.70176
            63    0      12.457697      8.884797      2.072687     false     180123.91670
            64    0      10.259280     10.154053      2.072687     false     180123.91670
            65    0      12.457697     11.423310      2.072687     false     180123.91670
            66    0      10.259280     12.692567      2.072687     false     180123.91670
            67    0       2.198417     13.961823      0.000000     false         15.70228
            68    0       0.000000     15.231080      0.000000     false         15.60004
            69    0       2.198417     16.500337      0.000000     false         15.70228
            70    0       3.664028     13.961823      2.072687     false     180123.91899
            71    0       1.465611     15.231080      2.072687     false     180123.93739
            72    0       3.664028     16.500337      2.072687     false     180123.91899
            73    0       6.595251     13.961823      0.000000     false         15.70176
            74    0       4.396834     15.231080      0.000000     false         15.70176
            75    0       6.595251     16.500337      0.000000     false         15.70176
            76    0       8.060862     13.961823      2.072687     false     180123.91670
            77    0       5.862445     15.231080      2.072687     false     180123.91670
            78    0       8.060862     16.500337      2.072687     false     180123.91670
            79    0      10.992085     13.961823      0.000000     false         15.70176
            80    0       8.793668     15.231080      0.000000     false         15.70176
            81    0      10.992085     16.500337      0.000000     false         15.70176
            82    0      12.457697     13.961823      2.072687     false     180123.91670
            83    0      10.259280     15.231080      2.072687     false     180123.91670
            84    0      12.457697     16.500337      2.072687     false     180123.91670
            85    0       0.000000     17.769593      0.000000     false         15.60004
            86    0       2.198417     19.038850      0.000000     false         15.70228
            87    0       0.000000     20.308107      0.000000     false         15.60004
            88    0       1.465611     17.769593      2.072687     false     180123.93739
            89    0       3.664028     19.038850      2.072687     false     180123.91899
            90    0       1.465611     20.308107      2.072687     false     180123.93739
            91    0       4.396834     17.769593      0.000000     false         15.70176
            92    0       6.595251     19.038850      0.000000     false         15.70176
            93    0       4.396834     20.308107      0.000000     false         15.70176
            94    0       5.862445     17.769593      2.072687     false     180123.91670
            95    0       8.060862     19.038850      2.072687     false     180123.91670
            96    0       5.862445     20.308107      2.072687     false     180123.91670
            97    0       8.793668     17.769593      0.000000     false         15.70176
            98    0      10.992085     19.038850      0.000000     false         15.70176
            99    0       8.793668     20.308107      0.000000     false         15.70176
           100    0      10.259280     17.769593      2.072687     false     180123.91670
           101    0      12.457697     19.038850      2.072687     false     180123.91670
           102    0      10.259280     20.308107      2.072687     false     180123.91670
           103    0       2.198417     21.577363      0.000000     false         15.70228
           104    0       0.000000     22.846620      0.000000     false         15.60004
           105    0       2.198417     24.115877      0.000000     false         15.70228
           106    0       0.000000     25.385133      0.000000     false         15.60004
           107    0       3.664028     21.577363      2.072687     false     180123.91899
           108    0       1.465611     22.846620      2.072687     false     180123.93739
           109    0       3.664028     24.115877      2.072687     false     180123.91899
           110    0       1.465611     25.385133      2.072687     false     180123.93739
           111    0       6.595251     21.577363      0.000000     false         15.70176
           112    0       4.396834     22.846620      0.000000     false         15.70176
           113    0       6.595251     24.115877      0.000000     false         15.70176
           114    0       4.396834     25.385133      0.000000     false         15.70176
           115    0       8.060862     21.577363      2.072687     false     180123.91670
           116    0       5.862445     22.846620      2.072687     false     180123.91670
           117    0       8.060862     24.115877      2.072687     false     180123.91670
           118    0       5.862445     25.385133      2.072687     false     180123.91670
           119    0      10.992085     21.577363      0.000000     false         15.70176
           120    0       8.793668     22.846620      0.000000     false         15.70176
           121    0      10.992085     24.115877      0.000000     false         15.70176
           122    0       8.793668     25.385133      0.000000     false         15.70176
           123    0      12.457697     21.577363      2.072687     false     180123.91670
           124    0      10.259280     22.846620      2.072687     false     180123.91670
           125    0      12.457697     24.115877      2.072687     false     180123.91670
           126    0      10.259280     25.385133      2.072687     false     180123.91670
           127    0       2.198417     26.654390      0.000000     false         15.70228
           128    0       0.000000     27.923647      0.000000     false         15.60004
           129    0       2.198417     29.192903      0.000000     false         15.70228
           130    0       3.664028     26.654390      2.072687     false     180123.91899
           131    0       1.465611     27.923647      2.072687     false     180123.93739
           132    0       3.664028     29.192903      2.072687     false     180123.91899
           133    0       6.595251     26.654390      0.000000     false         15.70176
           134    0       4.396834     27.923647      0.000000     false         15.70176
           135    0       6.595251     29.192903      0.000000     false         15.70176
           136    0       8.060862     26.654390      2.072687     false     180123.91670
           137    0       5.862445     27.923647      2.072687     false     180123.91670
           138    0       8.060862     29.192903      2.072687     false     180123.91670
           139    0      10.992085     26.654390      0.000000     false         15.70176
           140    0       8.793668     27.923647      0.000000     false         15.70176
           141    0      10.992085     29.192903      0.000000     false         15.70176
           142    0      12.457697     26.654390      2.072687     false     180123.91670
           143    0      10.259280     27.923647      2.072687     false     180123.91670
           144    0      12.457697     29.192903      2.072687     false     180123.91670
           145    0       0.000000     30.462160      0.000000     false         15.60004
           146    0       2.198417     31.731417      0.000000     false         15.70228
           147    0       0.000000     33.000673      0.000000     false         15.60004
           148    0       1.465611     30.462160      2.072687     false     180123.93739
           149    0       3.664028     31.731417      2.072687     false     180123.91899
           150    0       1.465611     33.000673      2.072687     false     180123.93739
           151    0       4.396834     30.462160      0.000000     false         15.70176
           152    0       6.595251     31.731417      0.000000     false         15.70176
           153    0       4.396834     33.000673      0.000000     false         15.70176
           154    0       5.862445     30.462160      2.072687     false     180123.91670
           155    0       8.060862     31.731417      2.072687     false     180123.91670
           156    0       5.862445     33.000673      2.072687     false     180123.91670
           157    0       8.793668     30.462160      0.000000     false         15.70176
           158    0      10.992085     31.731417      0.000000     false         15.70176
           159    0       8.793668     33.000673      0.000000     false         15.70176
           160    0      10.259280     30.462160      2.072687     false     180123.91670
           161    0      12.457697     31.731417      2.072687     false     180123.91670
           162    0      10.259280     33.000673      2.072687     false     180123.91670
           163    0       2.198417     34.269930      0.000000     false         15.70265
           164    0       0.000000     35.539187      0.000000     false         15.63887
           165    0       2.198417     36.808443      0.000000     false         15.78048
           166    0       3.664028     34.269930      2.072687     false     180123.91371
           167    0       1.465611     35.539187      2.072687     false     180123.92828
           168    0       3.664028     36.808443      2.072687     false     180123.90015
           169    0       6.595251     34.269930      0.000000     false         15.70214
           170    0       4.396834     35.539187      0.000000     false         15.74059
           171    0       6.595251     36.808443      0.000000     false         15.77996
           172    0       8.060862     34.269930      2.072687     false     180123.91142
           173    0       5.862445     35.539187      2.072687     false     180123.90759
           174    0       8.060862     36.808443      2.072687     false     180123.89786
           175    0      10.992085     34.269930      0.000000     false         15.70214
           176    0       8.793668     35.539187      0.000000     false         15.74059
           177    0      10.992085     36.808443      0.000000     false         15.77996
           178    0      12.457697     34.269930      2.072687     false     180123.91142
           179    0      10.259280     35.539187      2.072687     false     180123.90759
           180    0      12.457697     36.808443      2.072687     false     180123.89786
           181    0       2.931223      0.000000      4.145375     false     385949.65140
           182    0       0.732806      1.269257      4.145375     false     385949.68138
           183    0       2.931223      2.538513      4.145375     false     385949.66693
           184    0       0.732806      3.807770      4.145375     false     385949.69093
           185    0       0.000000      0.000000      6.218062     false     385949.67574
           186    0       2.198417      1.269257      6.218062     false     385949.66379
           187    0       0.000000      2.538513      6.218062     false     385949.69127
           188    0       2.198417      3.807770      6.218062     false     385949.67333
           189    0       7.328057      0.000000      4.145375     false     385949.64527
           190    0       5.129640      1.269257      4.145375     false     385949.65657
           191    0       7.328057      2.538513      4.145375     false     385949.66080
           192    0       5.129640      3.807770      4.145375     false     385949.66611
           193    0       4.396834      0.000000      6.218062     false     385949.64527
           194    0       6.595251      1.269257      6.218062     false     385949.65657
           195    0       4.396834      2.538513      6.218062     false     385949.66080
           196    0       6.595251      3.807770      6.218062     false     385949.66611
           197    0      11.724891      0.000000      4.145375     false     385949.64527
           198    0       9.526474      1.269257      4.145375     false     385949.65657
           199    0      11.724891      2.538513      4.145375     false     385949.66080
           200    0       9.526474      3.807770      4.145375     false     385949.66611
           201    0       8.793668      0.000000      6.218062     false     385949.64527
           202    0      10.992085      1.269257      6.218062     false     385949.65657
           203    0       8.793668      2.538513      6.218062     false     385949.66080
           204    0      10.992085      3.807770      6.218062     false     385949.66611
           205    0       2.931223      5.077027      4.145375     false     385949.67224
           206    0       0.732806      6.346283      4.145375     false     385949.69093
           207    0       2.931223      7.615540      4.145375     false     385949.67224
           208    0       0.000000      5.077027      6.218062     false     385949.69658
           209    0       2.198417      6.346283      6.218062     false     385949.67333
           210    0       0.000000      7.615540      6.218062     false     385949.69658
           211    0       7.328057      5.077027      4.145375     false     385949.66611
           212    0       5.129640      6.346283      4.145375     false     385949.66611
           213    0       7.328057      7.615540      4.145375     false     385949.66611
           214    0       4.396834      5.077027      6.218062     false     385949.66611
           215    0       6.595251      6.346283      6.218062     false     385949.66611
           216    0       4.396834      7.615540      6.218062     false     385949.66611
           217    0      11.724891      5.077027      4.145375     false     385949.66611
           218    0       9.526474      6.346283      4.145375     false     385949.66611
           219    0      11.724891      7.615540      4.145375     false     385949.66611
           220    0       8.793668      5.077027      6.218062     false     385949.66611
           221    0      10.992085      6.346283      6.218062     false     385949.66611
           222    0       8.793668      7.615540      6.218062     false     385949.66611
           223    0       0.732806      8.884797      4.145375     false     385949.69093
           224    0       2.931223     10.154053      4.145375     false     385949.67224
           225    0       0.732806     11.423310      4.145375     false     385949.69093
           226    0       2.931223     12.692567      4.145375     false     385949.67224
           227    0       2.198417      8.884797      6.218062     false     385949.67333
           228    0       0.000000     10.154053      6.218062     false     385949.69658
           229    0       2.198417     11.423310      6.218062     false     385949.67333
           230    0       0.000000     12.692567      6.218062     false     385949.69658
           231    0       5.129640      8.884797      4.145375     false     385949.66611
           232    0       7.328057     10.154053      4.145375     false     385949.66611
           233    0       5.129640     11.423310      4.145375     false     385949.66611
           234    0       7.328057     12.692567      4.145375     false     385949.66611
           235    0       6.595251      8.884797      6.218062     false     385949.66611
           236    0       4.396834     10.154053      6.218062     false     385949.66611
           237    0       6.595251     11.423310      6.218062     false     385949.66611
           238    0       4.396834     12.692567      6.218062     false     385949.66611
           239    0       9.526474      8.884797      4.145375     false     385949.66611
           240    0      11.724891     10.154053      4.145375     false     385949.66611
           241    0       9.526474     11.423310      4.145375     false     385949.66611
           242    0      11.724891     12.692567      4.145375     false     385949.66611
           243    0      10.992085      8.884797      6.218062     false     385949.66611
           244    0       8.793668     10.154053      6.218062     false     385949.66611
           245    0      10.992085     11.423310      6.218062     false     385949.66611
           246    0       8.793668     12.692567      6.218062     false     385949.66611
           247    0       0.732806     13.961823      4.145375     false     385949.69093
           248    0       2.931223     15.231080      4.145375     false     385949.67224
           249    0       0.732806     16.500337      4.145375     false     385949.69093
           250    0       2.198417     13.961823      6.218062     false     385949.67333
           251    0       0.000000     15.231080      6.218062     false     385949.69658
           252    0       2.198417     16.500337      6.218062     false     385949.67333
           253    0       5.129640     13.961823      4.145375     false     385949.66611
           254    0       7.328057     15.231080      4.145375     false     385949.66611
           255    0       5.129640     16.500337      4.145375     false     385949.66611
           256    0       6.595251     13.961823      6.218062     false     385949.66611
           257    0       4.396834     15.231080      6.218062     false     385949.66611
           258    0       6.595251     16.500337      6.218062     false     385949.66611
           259    0       9.526474     13.961823      4.145375     false     385949.66611
           260    0      11.724891     15.231080      4.145375     false     385949.66611
           261    0       9.526474     16.500337      4.145375     false     385949.66611
           262    0      10.992085     13.961823      6.218062     false     385949.66611
           263    0       8.793668     15.231080      6.218062     false     385949.66611
           264    0      10.992085     16.500337      6.218062     false     385949.66611
           265    0       2.931223     17.769593      4.145375     false     385949.67224
           266    0       0.732806     19.038850      4.145375     false     385949.69093
           267    0       2.931223     20.308107      4.145375     false     385949.67224
           268    0       0.000000     17.769593      6.218062     false     385949.69658
           269    0       2.198417     19.038850      6.218062     false     385949.67333
           270    0       0.000000     20.308107      6.218062     false     385949.69658
           271    0       7.328057     17.769593      4.145375     false     385949.66611
           272    0       5.129640     19.038850      4.145375     false     385949.66611
           273    0       7.328057     20.308107      4.145375     false     385949.66611
           274    0       4.396834     17.769593      6.218062     false     385949.66611
           275    0       6.595251     19.038850      6.218062     false     385949.66611
           276    0       4.396834     20.308107      6.218062     false     385949.66611
           277    0      11.724891     17.769593      4.145375     false     385949.66611
           278    0       9.526474     19.038850      4.145375     false     385949.66611
           279    0      11.724891     20.308107      4.145375     false     385949.66611
           280    0       8.793668     17.769593      6.218062     false     385949.66611
           281    0      10.992085     19.038850      6.218062     false     385949.66611
           282    0       8.793668     20.308107      6.218062     false     385949.66611
           283    0       0.732806     21.577363      4.145375     false     385949.69093
           284    0       2.931223     22.846620      4.145375     false     385949.67224
           285    0       0.732806     24.115877      4.145375     false     385949.69093
           286    0       2.931223     25.385133      4.145375     false     385949.67224
           287    0       2.198417     21.577363      6.218062     false     385949.67333
           288    0       0.000000     22.846620      6.218062     false     385949.69658
           289    0       2.198417     24.115877      6.218062     false     385949.67333
           290    0       0.000000     25.385133      6.218062     false     385949.69658
           291    0       5.129640     21.577363      4.145375     false     385949.66611
           292    0       7.328057     22.846620      4.145375     false     385949.66611
           293    0       5.129640     24.115877      4.145375     false     385949.66611
           294    0       7.328057     25.385133      4.145375     false     385949.66611
           295    0       6.595251     21.577363      6.218062     false     385949.66611
           296    0       4.396834     22.846620      6.218062     false     385949.66611
           297    0       6.595251     24.115877      6.218062     false     385949.66611
           298    0       4.396834     25.385133      6.218062     false     385949.66611
           299    0       9.526474     21.577363      4.145375     false     385949.66611
           300    0      11.724891     22.846620      4.145375     false     385949.66611
           301    0       9.526474     24.115877      4.145375     false     385949.66611
           302    0      11.724891     25.385133      4.145375     false     385949.66611
           303    0      10.992085     21.577363      6.218062     false     385949.66611
           304    0       8.793668     22.846620      6.218062     false     385949.66611
           305    0      10.992085     24.115877      6.218062     false     385949.66611
           306    0       8.793668     25.385133      6.218062     false     385949.66611
           307    0       0.732806     26.654390      4.145375     false     385949.69093
           308    0       2.931223     27.923647      4.145375     false     385949.67224
           309    0       0.732806     29.192903      4.145375     false     385949.69093
           310    0       2.198417     26.654390      6.218062     false     385949.67333
           311    0       0.000000     27.923647      6.218062     false     385949.69658
           312    0       2.198417     29.192903      6.218062     false     385949.67333
           313    0       5.129640     26.654390      4.145375     false     385949.66611
           314    0       7.328057     27.923647      4.145375     false     385949.66611
           315    0       5.129640     29.192903      4.145375     false     385949.66611
           316    0       6.595251     26.654390      6.218062     false     385949.66611
           317    0       4.396834     27.923647      6.218062     false     385949.66611
           318    0       6.595251     29.192903      6.218062     false     385949.66611
           319    0       9.526474     26.654390      4.145375     false     385949.66611
           320    0      11.724891     27.923647      4.145375     false     385949.66611
           321    0       9.526474     29.192903      4.145375     false     385949.66611
           322    0      10.992085     26.654390      6.218062     false     385949.66611
           323    0       8.793668     27.923647      6.218062     false     385949.66611
           324    0      10.992085     29.192903      6.218062     false     385949.66611
           325    0       2.931223     30.462160      4.145375     false     385949.67224
           326    0       0.732806     31.731417      4.145375     false     385949.69093
           327    0       2.931223     33.000673      4.145375     false     385949.67224
           328    0       0.000000     30.462160      6.218062     false     385949.69658
           329    0       2.198417     31.731417      6.218062     false     385949.67333
           330    0       0.000000     33.000673      6.218062     false     385949.69658
           331    0       7.328057     30.462160      4.145375     false     385949.66611
           332    0       5.129640     31.731417      4.145375     false     385949.66611