BEGIN_CFG
 Size
    6
 Supercell
         4.396834      0.000000      0.000000
         0.000000      2.538513      0.000000
         0.000000      0.000000     15.218062
 AtomData:  id type       cartes_x      cartes_y      cartes_z           fx          fy          fz
             1    0       0.000000      0.000000      0.000000     0.003987   -0.000000   -0.093326
             2    0       1.465610      0.000000      2.072690    -0.001769    0.000000    0.000555
             3    0       2.931220      0.000000      4.145370    -0.002171    0.000001    0.092845
             4    0       2.198420      1.269260      0.000000     0.003934    0.000000   -0.093462
             5    0       3.664030      1.269260      2.072690    -0.001879   -0.000000    0.000606
             6    0       0.732810      1.269260      4.145370    -0.002101   -0.000001    0.092782
 Energy
        -20.568577940000
 PlusStress:  xx          yy          zz          yz          xz          xy
        -1.61627    -1.63388    -0.55849    -0.00000    -0.02493    -0.00000
 Feature   EFS_by       VASP
END_CFG

