BEGIN_CFG
 Size
    164
 AtomData:  id type       cartes_x      cartes_y      cartes_z
             1    0       0.000000      0.000000      0.000000
             2    0       2.198417     -3.807770     -6.218062
             3    0      -0.000000     -2.538514     -6.218062
             4    0       2.198417     -1.269257     -6.218062
             5    0       1.465611     -5.077027     -4.145375
             6    0       3.664028     -3.807770     -4.145375
             7    0       1.465611     -2.538514     -4.145375
             8    0       3.664028     -1.269257     -4.145375
             9    0       5.862445     -2.538514     -4.145375
            10    0      -0.000000     -0.000000     -6.218062
            11    0       2.198417      1.269256     -6.218062
            12    0      -0.000000      2.538513     -6.218062
            13    0       1.465611     -0.000000     -4.145375
            14    0       3.664028      1.269256     -4.145375
            15    0       1.465611      2.538513     -4.145375
            16    0       4.396834     -0.000000     -6.218062
            17    0       5.862445     -0.000000     -4.145375
            18    0       5.862445      2.538513     -4.145375
            19    0       2.198417      3.807770     -6.218062
            20    0       3.664028      3.807770     -4.145375
            21    0       1.465611      5.077026     -4.145375
            22    0       2.931223     -5.077027     -2.072687
            23    0       0.732806     -3.807770     -2.072687
            24    0       2.931223     -2.538514     -2.072687
            25    0       0.732806     -1.269257     -2.072687
            26    0      -0.000000     -5.077027     -0.000000
            27    0       2.198417     -3.807770     -0.000000
            28    0      -0.000000     -2.538514     -0.000000
            29    0       2.198417     -1.269257     -0.000000
            30    0       5.129640     -3.807770     -2.072687
            31    0       5.129640     -1.269257     -2.072687
            32    0       4.396834     -5.077027     -0.000000
            33    0       6.595251     -3.807770     -0.000000
            34    0       4.396834     -2.538514     -0.000000
            35    0       6.595251     -1.269257     -0.000000
            36    0       2.931223     -0.000000     -2.072687
            37    0       0.732806      1.269256     -2.072687
            38    0       2.931223      2.538513     -2.072687
            39    0       2.198417      1.269256      0.000000
            40    0       0.000000      2.538513      0.000000
            41    0       7.328057      0.000000     -2.072687
            42    0       5.129640      1.269256     -2.072687
            43    0       4.396834      0.000000      0.000000
            44    0       6.595251      1.269256      0.000000
            45    0       4.396834      2.538513      0.000000
            46    0       0.732806      3.807770     -2.072687
            47    0       2.931223      5.077026     -2.072687
            48    0       0.732806      6.346283     -2.072687
            49    0       2.198417      3.807770      0.000000
            50    0       0.000000      5.077026      0.000000
            51    0       2.198417      6.346283      0.000000
            52    0       0.000000      7.615540      0.000000
            53    0       5.129640      3.807770     -2.072687
            54    0       6.595251      3.807770      0.000000
            55    0       4.396834      5.077026      0.000000
            56    0       1.465611     -5.077027      2.072688
            57    0       3.664028     -3.807770      2.072688
            58    0       1.465611     -2.538514      2.072688
            59    0       3.664028     -1.269257      2.072688
            60    0       2.931223     -5.077027      4.145375
            61    0       0.732806     -3.807770      4.145375
            62    0       2.931223     -2.538514      4.145375
            63    0       0.732806     -1.269257      4.145375
            64    0       5.862445     -2.538514      2.072688
            65    0       5.129640     -3.807770      4.145375
            66    0       5.129640     -1.269257      4.145375
            67    0       1.465611      0.000000      2.072688
            68    0       3.664028      1.269256      2.072688
            69    0       1.465611      2.538513      2.072688
            70    0       2.931223      0.000000      4.145375
            71    0       0.732806      1.269256      4.145375
            72    0       2.931223      2.538513      4.145375
            73    0       5.862445      0.000000      2.072688
            74    0       5.862445      2.538513      2.072688
            75    0       5.129640      1.269256      4.145375
            76    0       3.664028      3.807770      2.072688
            77    0       1.465611      5.077026      2.072688
            78    0       3.664028      6.346283      2.072688
            79    0       0.732806      3.807770      4.145375
            80    0       2.931223      5.077026      4.145375
            81    0       0.732806      6.346283      4.145375
            82    0       5.129640      3.807770      4.145375
            83    0      -5.129640     -3.807770     -4.145375
            84    0      -5.129640     -1.269257     -4.145375
            85    0      -2.198417     -3.807770     -6.218062
            86    0      -2.198417     -1.269257     -6.218062
            87    0      -2.931223     -5.077027     -4.145375
            88    0      -0.732806     -3.807770     -4.145375
            89    0      -2.931223     -2.538514     -4.145375
            90    0      -0.732806     -1.269257     -4.145375
            91    0      -5.129640      1.269256     -4.145375
            92    0      -4.396834      0.000000     -6.218062
            93    0      -2.198417      1.269256     -6.218062
            94    0      -2.931223      0.000000     -4.145375
            95    0      -0.732806      1.269256     -4.145375
            96    0      -2.931223      2.538513     -4.145375
            97    0      -5.129640      3.807770     -4.145375
            98    0      -2.198417      3.807770     -6.218062
            99    0      -0.732806      3.807770     -4.145375
           100    0      -2.931223      5.077026     -4.145375
           101    0      -0.732806      6.346283     -4.145375
           102    0      -5.862445     -2.538514     -2.072687
           103    0      -6.595251     -3.807770      0.000000
           104    0      -6.595251     -1.269257      0.000000
           105    0      -1.465611     -5.077027     -2.072687
           106    0      -3.664028     -3.807770     -2.072687
           107    0      -1.465611     -2.538514     -2.072687
           108    0      -3.664028     -1.269257     -2.072687
           109    0      -4.396834     -5.077027      0.000000
           110    0      -2.198417     -3.807770      0.000000
           111    0      -4.396834     -2.538514      0.000000
           112    0      -2.198417     -1.269257      0.000000
           113    0      -5.862445      0.000000     -2.072687
           114    0      -5.862445      2.538513     -2.072687
           115    0      -6.595251      1.269256      0.000000
           116    0      -1.465611      0.000000     -2.072687
           117    0      -3.664028      1.269256     -2.072687
           118    0      -1.465611      2.538513     -2.072687
           119    0      -4.396834      0.000000      0.000000
           120    0      -2.198417      1.269256      0.000000
           121    0      -4.396834      2.538513      0.000000
           122    0      -6.595251      3.807770      0.000000
           123    0      -3.664028      3.807770     -2.072687
           124    0      -1.465611      5.077026     -2.072687
           125    0      -3.664028      6.346283     -2.072687
           126    0      -2.198417      3.807770      0.000000
           127    0      -4.396834      5.077026      0.000000
           128    0      -2.198417      6.346283      0.000000
           129    0      -5.129640     -3.807770      2.072688
           130    0      -5.129640     -1.269257      2.072688
           131    0      -5.862445     -2.538514      4.145375
           132    0      -2.931223     -5.077027      2.072688
           133    0      -0.732806     -3.807770      2.072688
           134    0      -2.931223     -2.538514      2.072688
           135    0      -0.732806     -1.269257      2.072688
           136    0      -1.465611     -5.077027      4.145375
           137    0      -3.664028     -3.807770      4.145375
           138    0      -1.465611     -2.538514      4.145375
           139    0      -3.664028     -1.269257      4.145375
           140    0      -7.328057      0.000000      2.072688
           141    0      -5.129640      1.269256      2.072688
           142    0      -5.862445      0.000000      4.145375
           143    0      -5.862445      2.538513      4.145375
           144    0      -2.931223      0.000000      2.072688
           145    0      -0.732806      1.269256      2.072688
           146    0      -2.931223      2.538513      2.072688
           147    0      -1.465611      0.000000      4.145375
           148    0      -3.664028      1.269256      4.145375
           149    0      -1.465611      2.538513      4.145375
           150    0      -5.129640      3.807770      2.072688
           151    0      -0.732806      3.807770      2.072688
           152    0      -2.931223      5.077026      2.072688
           153    0      -0.732806      6.346283      2.072688
           154    0      -3.664028      3.807770      4.145375
           155    0      -1.465611      5.077026      4.145375
           156    0       0.732806     -6.346284     -2.072687
           157    0       0.000000     -7.615540      0.000000
           158    0       2.198417     -6.346284      0.000000
           159    0       3.664028     -6.346284      2.072688
           160    0       0.732806     -6.346284      4.145375
           161    0      -0.732806     -6.346284     -4.145375
           162    0      -3.664028     -6.346284     -2.072687
           163    0      -2.198417     -6.346284      0.000000
           164    0      -0.732806     -6.346284      2.072688
 Feature   cfg#	0
 Feature   extrapolation_grade	385949.696580
 Feature   nbh#	207
END_CFG

BEGIN_CFG
 Size
    1
 AtomData:  id type       cartes_x      cartes_y      cartes_z
             1    0       0.000000      0.000000      0.000000
 Feature   cfg#	1
 Feature   extrapolation_grade	1000000.000000
 Feature   nbh#	540
END_CFG

